 Entering Gaussian System, Link 0=g09
 Initial command:
 /data/leuven/301/vsc30101/g09A2/l1.exe /local_scratch/vsc30783/Gau-56193.inp -scrdir=/local_scratch/vsc30783/
 Entering Link 1 = /data/leuven/301/vsc30101/g09A2/l1.exe PID=     56194.
  
 Copyright (c) 1988,1990,1992,1993,1995,1998,2003,2009, Gaussian, Inc.
                  All Rights Reserved.
  
 This is part of the Gaussian(R) 09 program.  It is based on
 the Gaussian(R) 03 system (copyright 2003, Gaussian, Inc.),
 the Gaussian(R) 98 system (copyright 1998, Gaussian, Inc.),
 the Gaussian(R) 94 system (copyright 1995, Gaussian, Inc.),
 the Gaussian 92(TM) system (copyright 1992, Gaussian, Inc.),
 the Gaussian 90(TM) system (copyright 1990, Gaussian, Inc.),
 the Gaussian 88(TM) system (copyright 1988, Gaussian, Inc.),
 the Gaussian 86(TM) system (copyright 1986, Carnegie Mellon
 University), and the Gaussian 82(TM) system (copyright 1983,
 Carnegie Mellon University). Gaussian is a federally registered
 trademark of Gaussian, Inc.
  
 This software contains proprietary and confidential information,
 including trade secrets, belonging to Gaussian, Inc.
  
 This software is provided under written license and may be
 used, copied, transmitted, or stored only in accord with that
 written license.
  
 The following legend is applicable only to US Government
 contracts under FAR:
  
                    RESTRICTED RIGHTS LEGEND
  
 Use, reproduction and disclosure by the US Government is
 subject to restrictions as set forth in subparagraphs (a)
 and (c) of the Commercial Computer Software - Restricted
 Rights clause in FAR 52.227-19.
  
 Gaussian, Inc.
 340 Quinnipiac St., Bldg. 40, Wallingford CT 06492
  
  
 ---------------------------------------------------------------
 Warning -- This program may not be used in any manner that
 competes with the business of Gaussian, Inc. or will provide
 assistance to any competitor of Gaussian, Inc.  The licensee
 of this program is prohibited from giving any competitor of
 Gaussian, Inc. access to this program.  By using this program,
 the user acknowledges that Gaussian, Inc. is engaged in the
 business of creating and licensing software in the field of
 computational chemistry and represents and warrants to the
 licensee that it is not a competitor of Gaussian, Inc. and that
 it will not use this program in any manner prohibited above.
 ---------------------------------------------------------------
  

 Cite this work as:
 Gaussian 09, Revision A.02,
 M. J. Frisch, G. W. Trucks, H. B. Schlegel, G. E. Scuseria, 
 M. A. Robb, J. R. Cheeseman, G. Scalmani, V. Barone, B. Mennucci, 
 G. A. Petersson, H. Nakatsuji, M. Caricato, X. Li, H. P. Hratchian, 
 A. F. Izmaylov, J. Bloino, G. Zheng, J. L. Sonnenberg, M. Hada, 
 M. Ehara, K. Toyota, R. Fukuda, J. Hasegawa, M. Ishida, T. Nakajima, 
 Y. Honda, O. Kitao, H. Nakai, T. Vreven, J. A. Montgomery, Jr., 
 J. E. Peralta, F. Ogliaro, M. Bearpark, J. J. Heyd, E. Brothers, 
 K. N. Kudin, V. N. Staroverov, R. Kobayashi, J. Normand, 
 K. Raghavachari, A. Rendell, J. C. Burant, S. S. Iyengar, J. Tomasi, 
 M. Cossi, N. Rega, J. M. Millam, M. Klene, J. E. Knox, J. B. Cross, 
 V. Bakken, C. Adamo, J. Jaramillo, R. Gomperts, R. E. Stratmann, 
 O. Yazyev, A. J. Austin, R. Cammi, C. Pomelli, J. W. Ochterski, 
 R. L. Martin, K. Morokuma, V. G. Zakrzewski, G. A. Voth, 
 P. Salvador, J. J. Dannenberg, S. Dapprich, A. D. Daniels, 
 O. Farkas, J. B. Foresman, J. V. Ortiz, J. Cioslowski, 
 and D. J. Fox, Gaussian, Inc., Wallingford CT, 2009.
 
 ******************************************
 Gaussian 09:  AM64L-G09RevA.02 11-Jun-2009
                15-Jul-2016 
 ******************************************
 %mem=2gb
 %NProcShared=20
 Will use up to   20 processors via shared memory.
 ------------------------------------------------
 #n B3LYP/6-31G(d) Opt Pop=ESP scf=(direct,tight)
 ------------------------------------------------
 1/14=-1,18=20,19=15,26=3,38=1/1,3;
 2/9=110,12=2,17=6,18=5,40=1/2;
 3/5=1,6=6,7=1,11=2,16=1,25=1,30=1,71=1,74=-5/1,2,3;
 4//1;
 5/5=2,32=2,38=5/2;
 6/7=2,8=2,9=2,10=2,15=8,28=1/1,2;
 7//1,2,3,16;
 1/14=-1,18=20,19=15/3(2);
 2/9=110/2;
 99//99;
 2/9=110/2;
 3/5=1,6=6,7=1,11=2,16=1,25=1,30=1,71=1,74=-5/1,2,3;
 4/5=5,16=3/1;
 5/5=2,32=2,38=5/2;
 7//1,2,3,16;
 1/14=-1,18=20,19=15/3(-5);
 2/9=110/2;
 6/7=2,8=2,9=2,10=2,15=8,19=2,28=1/1,2;
 99/9=1/99;
 ----
 3DEG
 ----
 Symbolic Z-matrix:
 Charge =  0 Multiplicity = 1
 C                    -5.84487   2.19031  -0.20192 
 C                    -4.94583   2.85333   0.84438 
 C                     2.67391   2.78654  -1.48874 
 O                     3.19661   1.54242  -1.59828 
 H                     2.70906   0.73269  -1.41018 
 O                     3.39121   3.74008  -1.74999 
 C                     1.25883   3.02777  -1.06064 
 C                     0.3809    1.96864  -0.75277 
 H                     0.6923    0.93831  -0.81292 
 C                    -0.9342    2.22812  -0.3567 
 H                    -1.58491   1.39359  -0.12687 
 C                    -1.40474   3.54685  -0.25633 
 C                    -0.53473   4.6058   -0.56134 
 H                    -0.87214   5.63253  -0.49328 
 C                    -2.80384   3.80894   0.16626 
 O                    -3.20878   4.95949   0.26686 
 O                    -3.6298    2.75997   0.42684 
 C                     0.78049   4.34927  -0.95945 
 H                     1.4267    5.18736  -1.18881 
 H                    -5.04379   2.31226   1.80934 
 H                    -5.25833   3.90581   1.00981 
 C                    -7.99434   3.16771   0.40984 
 O                    -7.16156   2.10979   0.21511 
 O                    -7.60627   4.30952   0.20174 
 C                    -9.39108   2.92503   0.85063 
 C                    -9.84846   1.61159   1.05204 
 H                    -9.189     0.7679    0.8919 
 C                    -11.16407   1.37297   1.45801 
 H                    -11.49085   0.35086   1.60286 
 C                    -12.0482   2.443     1.67252 
 C                    -11.59101   3.75818   1.4747 
 H                    -12.25281   4.60042   1.63374 
 C                    -13.44584   2.18346   2.09987 
 O                    -14.21613   3.11408   2.28845 
 O                    -13.87575   0.91509   2.27943 
 H                    -14.7846   0.72777   2.5542 
 C                    -10.27476   3.99705   1.06668 
 H                    -9.94756   5.0187    0.91909 
 H                    -5.48022   1.15302  -0.36031 
 H                    -5.7805    2.73018  -1.17208 
 

 GradGradGradGradGradGradGradGradGradGradGradGradGradGradGradGradGradGrad
 Berny optimization.
 Initialization pass.
                           ----------------------------
                           !    Initial Parameters    !
                           ! (Angstroms and Degrees)  !
 --------------------------                            --------------------------
 ! Name  Definition              Value          Derivative Info.                !
 --------------------------------------------------------------------------------
 ! R1    R(1,2)                  1.5306         estimate D2E/DX2                !
 ! R2    R(1,23)                 1.3835         estimate D2E/DX2                !
 ! R3    R(1,39)                 1.1109         estimate D2E/DX2                !
 ! R4    R(1,40)                 1.1121         estimate D2E/DX2                !
 ! R5    R(2,17)                 1.3838         estimate D2E/DX2                !
 ! R6    R(2,20)                 1.1106         estimate D2E/DX2                !
 ! R7    R(2,21)                 1.1103         estimate D2E/DX2                !
 ! R8    R(3,4)                  1.3539         estimate D2E/DX2                !
 ! R9    R(3,6)                  1.2215         estimate D2E/DX2                !
 ! R10   R(3,7)                  1.498          estimate D2E/DX2                !
 ! R11   R(4,5)                  0.9637         estimate D2E/DX2                !
 ! R12   R(7,8)                  1.4097         estimate D2E/DX2                !
 ! R13   R(7,18)                 1.409          estimate D2E/DX2                !
 ! R14   R(8,9)                  1.078          estimate D2E/DX2                !
 ! R15   R(8,10)                 1.3977         estimate D2E/DX2                !
 ! R16   R(10,11)                1.0829         estimate D2E/DX2                !
 ! R17   R(10,12)                1.4038         estimate D2E/DX2                !
 ! R18   R(12,13)                1.404          estimate D2E/DX2                !
 ! R19   R(12,15)                1.4848         estimate D2E/DX2                !
 ! R20   R(13,14)                1.0829         estimate D2E/DX2                !
 ! R21   R(13,18)                1.3979         estimate D2E/DX2                !
 ! R22   R(15,16)                1.2239         estimate D2E/DX2                !
 ! R23   R(15,17)                1.3603         estimate D2E/DX2                !
 ! R24   R(18,19)                1.0829         estimate D2E/DX2                !
 ! R25   R(22,23)                1.3604         estimate D2E/DX2                !
 ! R26   R(22,24)                1.2238         estimate D2E/DX2                !
 ! R27   R(22,25)                1.4846         estimate D2E/DX2                !
 ! R28   R(25,26)                1.4053         estimate D2E/DX2                !
 ! R29   R(25,37)                1.406          estimate D2E/DX2                !
 ! R30   R(26,27)                1.0827         estimate D2E/DX2                !
 ! R31   R(26,28)                1.3973         estimate D2E/DX2                !
 ! R32   R(28,29)                1.0828         estimate D2E/DX2                !
 ! R33   R(28,30)                1.4045         estimate D2E/DX2                !
 ! R34   R(30,31)                1.4064         estimate D2E/DX2                !
 ! R35   R(30,33)                1.4844         estimate D2E/DX2                !
 ! R36   R(31,32)                1.0829         estimate D2E/DX2                !
 ! R37   R(31,37)                1.3986         estimate D2E/DX2                !
 ! R38   R(33,34)                1.2227         estimate D2E/DX2                !
 ! R39   R(33,35)                1.3512         estimate D2E/DX2                !
 ! R40   R(35,36)                0.9678         estimate D2E/DX2                !
 ! R41   R(37,38)                1.0829         estimate D2E/DX2                !
 ! A1    A(2,1,23)             112.2209         estimate D2E/DX2                !
 ! A2    A(2,1,39)             108.008          estimate D2E/DX2                !
 ! A3    A(2,1,40)             110.6133         estimate D2E/DX2                !
 ! A4    A(23,1,39)            107.52           estimate D2E/DX2                !
 ! A5    A(23,1,40)            110.2607         estimate D2E/DX2                !
 ! A6    A(39,1,40)            108.0536         estimate D2E/DX2                !
 ! A7    A(1,2,17)             108.8521         estimate D2E/DX2                !
 ! A8    A(1,2,20)             109.3354         estimate D2E/DX2                !
 ! A9    A(1,2,21)             110.3139         estimate D2E/DX2                !
 ! A10   A(17,2,20)            108.2501         estimate D2E/DX2                !
 ! A11   A(17,2,21)            112.1218         estimate D2E/DX2                !
 ! A12   A(20,2,21)            107.9104         estimate D2E/DX2                !
 ! A13   A(4,3,6)              118.2504         estimate D2E/DX2                !
 ! A14   A(4,3,7)              122.3988         estimate D2E/DX2                !
 ! A15   A(6,3,7)              119.3508         estimate D2E/DX2                !
 ! A16   A(3,4,5)              124.1236         estimate D2E/DX2                !
 ! A17   A(3,7,8)              121.9875         estimate D2E/DX2                !
 ! A18   A(3,7,18)             119.4885         estimate D2E/DX2                !
 ! A19   A(8,7,18)             118.524          estimate D2E/DX2                !
 ! A20   A(7,8,9)              121.7343         estimate D2E/DX2                !
 ! A21   A(7,8,10)             120.5545         estimate D2E/DX2                !
 ! A22   A(9,8,10)             117.7112         estimate D2E/DX2                !
 ! A23   A(8,10,11)            118.8449         estimate D2E/DX2                !
 ! A24   A(8,10,12)            120.6665         estimate D2E/DX2                !
 ! A25   A(11,10,12)           120.4886         estimate D2E/DX2                !
 ! A26   A(10,12,13)           119.0318         estimate D2E/DX2                !
 ! A27   A(10,12,15)           120.1333         estimate D2E/DX2                !
 ! A28   A(13,12,15)           120.8349         estimate D2E/DX2                !
 ! A29   A(12,13,14)           120.5558         estimate D2E/DX2                !
 ! A30   A(12,13,18)           120.4284         estimate D2E/DX2                !
 ! A31   A(14,13,18)           119.0157         estimate D2E/DX2                !
 ! A32   A(12,15,16)           120.0723         estimate D2E/DX2                !
 ! A33   A(12,15,17)           119.3754         estimate D2E/DX2                !
 ! A34   A(16,15,17)           120.5495         estimate D2E/DX2                !
 ! A35   A(2,17,15)            125.6766         estimate D2E/DX2                !
 ! A36   A(7,18,13)            120.7947         estimate D2E/DX2                !
 ! A37   A(7,18,19)            120.5356         estimate D2E/DX2                !
 ! A38   A(13,18,19)           118.6697         estimate D2E/DX2                !
 ! A39   A(23,22,24)           120.4717         estimate D2E/DX2                !
 ! A40   A(23,22,25)           119.427          estimate D2E/DX2                !
 ! A41   A(24,22,25)           120.0888         estimate D2E/DX2                !
 ! A42   A(1,23,22)            125.4852         estimate D2E/DX2                !
 ! A43   A(22,25,26)           120.1015         estimate D2E/DX2                !
 ! A44   A(22,25,37)           120.8172         estimate D2E/DX2                !
 ! A45   A(26,25,37)           119.0808         estimate D2E/DX2                !
 ! A46   A(25,26,27)           120.5871         estimate D2E/DX2                !
 ! A47   A(25,26,28)           120.5088         estimate D2E/DX2                !
 ! A48   A(27,26,28)           118.9038         estimate D2E/DX2                !
 ! A49   A(26,28,29)           118.9597         estimate D2E/DX2                !
 ! A50   A(26,28,30)           120.4604         estimate D2E/DX2                !
 ! A51   A(29,28,30)           120.5798         estimate D2E/DX2                !
 ! A52   A(28,30,31)           119.0998         estimate D2E/DX2                !
 ! A53   A(28,30,33)           120.2298         estimate D2E/DX2                !
 ! A54   A(31,30,33)           120.6703         estimate D2E/DX2                !
 ! A55   A(30,31,32)           120.5316         estimate D2E/DX2                !
 ! A56   A(30,31,37)           120.4445         estimate D2E/DX2                !
 ! A57   A(32,31,37)           119.0238         estimate D2E/DX2                !
 ! A58   A(30,33,34)           120.2986         estimate D2E/DX2                !
 ! A59   A(30,33,35)           120.1293         estimate D2E/DX2                !
 ! A60   A(34,33,35)           119.5719         estimate D2E/DX2                !
 ! A61   A(33,35,36)           121.2119         estimate D2E/DX2                !
 ! A62   A(25,37,31)           120.4054         estimate D2E/DX2                !
 ! A63   A(25,37,38)           120.5644         estimate D2E/DX2                !
 ! A64   A(31,37,38)           119.0302         estimate D2E/DX2                !
 ! D1    D(23,1,2,17)          173.1971         estimate D2E/DX2                !
 ! D2    D(23,1,2,20)           55.1299         estimate D2E/DX2                !
 ! D3    D(23,1,2,21)          -63.3871         estimate D2E/DX2                !
 ! D4    D(39,1,2,17)           54.8547         estimate D2E/DX2                !
 ! D5    D(39,1,2,20)          -63.2125         estimate D2E/DX2                !
 ! D6    D(39,1,2,21)          178.2705         estimate D2E/DX2                !
 ! D7    D(40,1,2,17)          -63.2078         estimate D2E/DX2                !
 ! D8    D(40,1,2,20)          178.725          estimate D2E/DX2                !
 ! D9    D(40,1,2,21)           60.208          estimate D2E/DX2                !
 ! D10   D(2,1,23,22)           66.9879         estimate D2E/DX2                !
 ! D11   D(39,1,23,22)        -174.3816         estimate D2E/DX2                !
 ! D12   D(40,1,23,22)         -56.8043         estimate D2E/DX2                !
 ! D13   D(1,2,17,15)          118.8809         estimate D2E/DX2                !
 ! D14   D(20,2,17,15)        -122.3692         estimate D2E/DX2                !
 ! D15   D(21,2,17,15)          -3.4487         estimate D2E/DX2                !
 ! D16   D(6,3,4,5)            179.7401         estimate D2E/DX2                !
 ! D17   D(7,3,4,5)             -0.2085         estimate D2E/DX2                !
 ! D18   D(4,3,7,8)             -0.3925         estimate D2E/DX2                !
 ! D19   D(4,3,7,18)           179.6146         estimate D2E/DX2                !
 ! D20   D(6,3,7,8)            179.6595         estimate D2E/DX2                !
 ! D21   D(6,3,7,18)            -0.3334         estimate D2E/DX2                !
 ! D22   D(3,7,8,9)             -0.007          estimate D2E/DX2                !
 ! D23   D(3,7,8,10)          -179.975          estimate D2E/DX2                !
 ! D24   D(18,7,8,9)           179.9859         estimate D2E/DX2                !
 ! D25   D(18,7,8,10)            0.018          estimate D2E/DX2                !
 ! D26   D(3,7,18,13)         -179.9383         estimate D2E/DX2                !
 ! D27   D(3,7,18,19)            0.0341         estimate D2E/DX2                !
 ! D28   D(8,7,18,13)            0.0686         estimate D2E/DX2                !
 ! D29   D(8,7,18,19)         -179.959          estimate D2E/DX2                !
 ! D30   D(7,8,10,11)          179.9939         estimate D2E/DX2                !
 ! D31   D(7,8,10,12)           -0.0857         estimate D2E/DX2                !
 ! D32   D(9,8,10,11)            0.0247         estimate D2E/DX2                !
 ! D33   D(9,8,10,12)          179.945          estimate D2E/DX2                !
 ! D34   D(8,10,12,13)           0.0662         estimate D2E/DX2                !
 ! D35   D(8,10,12,15)        -179.968          estimate D2E/DX2                !
 ! D36   D(11,10,12,13)        179.9853         estimate D2E/DX2                !
 ! D37   D(11,10,12,15)         -0.049          estimate D2E/DX2                !
 ! D38   D(10,12,13,14)        179.933          estimate D2E/DX2                !
 ! D39   D(10,12,13,18)          0.0203         estimate D2E/DX2                !
 ! D40   D(15,12,13,14)         -0.0325         estimate D2E/DX2                !
 ! D41   D(15,12,13,18)       -179.9452         estimate D2E/DX2                !
 ! D42   D(10,12,15,16)        179.2376         estimate D2E/DX2                !
 ! D43   D(10,12,15,17)         -1.3729         estimate D2E/DX2                !
 ! D44   D(13,12,15,16)         -0.7972         estimate D2E/DX2                !
 ! D45   D(13,12,15,17)        178.5922         estimate D2E/DX2                !
 ! D46   D(12,13,18,7)          -0.0883         estimate D2E/DX2                !
 ! D47   D(12,13,18,19)        179.9388         estimate D2E/DX2                !
 ! D48   D(14,13,18,7)         179.9977         estimate D2E/DX2                !
 ! D49   D(14,13,18,19)          0.0248         estimate D2E/DX2                !
 ! D50   D(12,15,17,2)         179.0915         estimate D2E/DX2                !
 ! D51   D(16,15,17,2)          -1.522          estimate D2E/DX2                !
 ! D52   D(24,22,23,1)           0.8063         estimate D2E/DX2                !
 ! D53   D(25,22,23,1)         179.5194         estimate D2E/DX2                !
 ! D54   D(23,22,25,26)         -0.5756         estimate D2E/DX2                !
 ! D55   D(23,22,25,37)        179.703          estimate D2E/DX2                !
 ! D56   D(24,22,25,26)        178.1425         estimate D2E/DX2                !
 ! D57   D(24,22,25,37)         -1.579          estimate D2E/DX2                !
 ! D58   D(22,25,26,27)          0.2147         estimate D2E/DX2                !
 ! D59   D(22,25,26,28)       -179.5601         estimate D2E/DX2                !
 ! D60   D(37,25,26,27)        179.941          estimate D2E/DX2                !
 ! D61   D(37,25,26,28)          0.1662         estimate D2E/DX2                !
 ! D62   D(22,25,37,31)        179.6421         estimate D2E/DX2                !
 ! D63   D(22,25,37,38)         -0.3009         estimate D2E/DX2                !
 ! D64   D(26,25,37,31)         -0.0821         estimate D2E/DX2                !
 ! D65   D(26,25,37,38)        179.9748         estimate D2E/DX2                !
 ! D66   D(25,26,28,29)        179.8177         estimate D2E/DX2                !
 ! D67   D(25,26,28,30)         -0.0885         estimate D2E/DX2                !
 ! D68   D(27,26,28,29)          0.0392         estimate D2E/DX2                !
 ! D69   D(27,26,28,30)       -179.867          estimate D2E/DX2                !
 ! D70   D(26,28,30,31)         -0.0742         estimate D2E/DX2                !
 ! D71   D(26,28,30,33)        179.8196         estimate D2E/DX2                !
 ! D72   D(29,28,30,31)       -179.9788         estimate D2E/DX2                !
 ! D73   D(29,28,30,33)         -0.085          estimate D2E/DX2                !
 ! D74   D(28,30,31,32)       -179.9769         estimate D2E/DX2                !
 ! D75   D(28,30,31,37)          0.1581         estimate D2E/DX2                !
 ! D76   D(33,30,31,32)          0.1298         estimate D2E/DX2                !
 ! D77   D(33,30,31,37)       -179.7352         estimate D2E/DX2                !
 ! D78   D(28,30,33,34)        179.916          estimate D2E/DX2                !
 ! D79   D(28,30,33,35)         -0.2654         estimate D2E/DX2                !
 ! D80   D(31,30,33,34)         -0.1919         estimate D2E/DX2                !
 ! D81   D(31,30,33,35)        179.6268         estimate D2E/DX2                !
 ! D82   D(30,31,37,25)         -0.0802         estimate D2E/DX2                !
 ! D83   D(30,31,37,38)        179.8637         estimate D2E/DX2                !
 ! D84   D(32,31,37,25)       -179.9472         estimate D2E/DX2                !
 ! D85   D(32,31,37,38)         -0.0033         estimate D2E/DX2                !
 ! D86   D(30,33,35,36)       -179.7431         estimate D2E/DX2                !
 ! D87   D(34,33,35,36)          0.0769         estimate D2E/DX2                !
 --------------------------------------------------------------------------------
 Trust Radius=3.00D-01 FncErr=1.00D-07 GrdErr=1.00D-06
 Number of steps in this run= 202 maximum allowed number of steps= 240.
 GradGradGradGradGradGradGradGradGradGradGradGradGradGradGradGradGradGrad

                          Input orientation:                          
 ---------------------------------------------------------------------
 Center     Atomic      Atomic             Coordinates (Angstroms)
 Number     Number       Type             X           Y           Z
 ---------------------------------------------------------------------
      1          6           0       -5.844870    2.190310   -0.201920
      2          6           0       -4.945830    2.853330    0.844380
      3          6           0        2.673910    2.786540   -1.488740
      4          8           0        3.196610    1.542420   -1.598280
      5          1           0        2.709060    0.732690   -1.410180
      6          8           0        3.391210    3.740080   -1.749990
      7          6           0        1.258830    3.027770   -1.060640
      8          6           0        0.380900    1.968640   -0.752770
      9          1           0        0.692300    0.938310   -0.812920
     10          6           0       -0.934200    2.228120   -0.356700
     11          1           0       -1.584910    1.393590   -0.126870
     12          6           0       -1.404740    3.546850   -0.256330
     13          6           0       -0.534730    4.605800   -0.561340
     14          1           0       -0.872140    5.632530   -0.493280
     15          6           0       -2.803840    3.808940    0.166260
     16          8           0       -3.208780    4.959490    0.266860
     17          8           0       -3.629800    2.759970    0.426840
     18          6           0        0.780490    4.349270   -0.959450
     19          1           0        1.426700    5.187360   -1.188810
     20          1           0       -5.043790    2.312260    1.809340
     21          1           0       -5.258330    3.905810    1.009810
     22          6           0       -7.994340    3.167710    0.409840
     23          8           0       -7.161560    2.109790    0.215110
     24          8           0       -7.606270    4.309520    0.201740
     25          6           0       -9.391080    2.925030    0.850630
     26          6           0       -9.848460    1.611590    1.052040
     27          1           0       -9.189000    0.767900    0.891900
     28          6           0      -11.164070    1.372970    1.458010
     29          1           0      -11.490850    0.350860    1.602860
     30          6           0      -12.048200    2.443000    1.672520
     31          6           0      -11.591010    3.758180    1.474700
     32          1           0      -12.252810    4.600420    1.633740
     33          6           0      -13.445840    2.183460    2.099870
     34          8           0      -14.216130    3.114080    2.288450
     35          8           0      -13.875750    0.915090    2.279430
     36          1           0      -14.784600    0.727770    2.554200
     37          6           0      -10.274760    3.997050    1.066680
     38          1           0       -9.947560    5.018700    0.919090
     39          1           0       -5.480220    1.153020   -0.360310
     40          1           0       -5.780500    2.730180   -1.172080
 ---------------------------------------------------------------------
                    Distance matrix (angstroms):
                    1          2          3          4          5
     1  C    0.000000
     2  C    1.530559   0.000000
     3  C    8.636030   7.969212   0.000000
     4  O    9.171583   8.601419   1.353901   0.000000
     5  H    8.760951   8.256966   2.055652   0.963716   0.000000
     6  O    9.492285   8.776293   1.221478   2.211469   3.102450
     7  C    7.204255   6.492868   1.497970   2.500063   2.737287
     8  C    6.254022   5.630952   2.543326   2.970652   2.716632
     9  H    6.683967   6.180813   2.792752   2.693197   2.113367
    10  C    4.913254   4.233988   3.822539   4.367528   4.076699
    11  H    4.334473   3.790772   4.683220   5.005011   4.530105
    12  C    4.643050   3.772513   4.328082   5.195285   5.116074
    13  C    5.844772   4.950253   3.803308   4.937858   5.122859
    14  H    6.054900   5.109622   4.654575   5.874075   6.137926
    15  C    3.464590   2.441548   5.812923   6.652527   6.506961
    16  O    3.851893   2.790481   6.512287   7.495608   7.463185
    17  O    2.372001   1.383832   6.588392   7.223809   6.904032
    18  C    7.009305   6.187276   2.511436   3.758211   4.123371
    19  H    7.926663   7.084539   2.722026   4.072571   4.640855
    20  H    2.168356   1.110631   8.406258   8.950347   8.542074
    21  H    2.180656   1.110287   8.391421   9.158262   8.910912
    22  C    2.439218   3.095331  10.842576  11.485272  11.126750
    23  O    1.383499   2.420391  10.004877  10.531001  10.097877
    24  O    2.785053   3.100228  10.528974  11.295979  11.036215
    25  C    3.771376   4.445833  12.290477  12.898012  12.503240
    26  C    4.235099   5.061701  12.831439  13.311755  12.826781
    27  H    3.795115   4.728189  12.266662  12.657180  12.118772
    28  C    5.631812   6.421411  14.218692  14.683281  14.180981
    29  H    6.206279   7.048045  14.701393  15.079410  14.521076
    30  C    6.485266   7.162251  15.061610  15.617727  15.172505
    31  C    6.187681   6.736058  14.601849  15.265206  14.898595
    32  H    7.088016   7.554295  15.357311  16.077372  15.750630
    33  C    7.941853   8.618303  16.525379  17.060433  16.595360
    34  O    8.782556   9.385723  17.310341  17.910341  17.487508
    35  O    8.501666   9.249844  17.076085  17.518438  16.991245
    36  H    9.468579  10.209940  18.038389  18.472430  17.937237
    37  C    4.949503   5.454815  13.253813  13.950091  13.615082
    38  H    5.107692   5.450845  13.041537  13.827179  13.564122
    39  H    1.110868   2.151257   8.392352   8.773345   8.266995
    40  H    1.112121   2.185852   8.460526   9.065370   8.724637
                    6          7          8          9         10
     6  O    0.000000
     7  C    2.351517   0.000000
     8  C    3.632412   1.409717   0.000000
     9  H    4.001516   2.179028   1.078039   0.000000
    10  C    4.789202   2.438104   1.397744   2.125382   0.000000
    11  H    5.736053   3.410180   2.141691   2.421493   1.082906
    12  C    5.026877   2.830365   2.434278   3.392912   1.403756
    13  C    4.192298   2.440561   2.798149   3.875484   2.419673
    14  H    4.830822   3.412873   3.880919   4.958361   3.407714
    15  C    6.485014   4.315182   3.791291   4.628424   2.503604
    16  O    7.008175   5.045130   4.782325   5.705632   3.608729
    17  O    7.415780   5.116934   4.254809   4.851391   2.857107
    18  C    2.794982   1.409046   2.422765   3.415245   2.793340
    19  H    2.503766   2.169893   3.412329   4.328402   3.875998
    20  H    9.265890   6.962166   6.009138   6.454976   4.646239
    21  H    9.080667   6.894280   6.217735   6.894810   4.835297
    22  C   11.602725   9.370328   8.540145   9.051137   7.163518
    23  O   10.857275   8.565815   7.605618   8.007017   6.254677
    24  O   11.183831   9.045799   8.377690   9.014480   7.011462
    25  C   13.069601  10.820540   9.948727  10.411004   8.571006
    26  C   13.699296  11.394774  10.393490  10.725624   9.045921
    27  H   13.193753  10.866305   9.784156  10.028736   8.475433
    28  C   15.091410  12.783208  11.769822  12.079717  10.424716
    29  H   15.627032  13.297158  12.210842  12.434236  10.899855
    30  C   15.867305  13.597396  12.672394  13.067588  11.299774
    31  C   15.325334  13.117920  12.308156  12.808770  10.920747
    32  H   16.028886  13.867131  13.123731  13.673810  11.734590
    33  C   17.341590  15.064163  14.119577  14.488677  12.750603
    34  O   18.075378  15.833453  14.954409  15.382255  13.571714
    35  O   17.954518  15.642091  14.613565  14.892658  13.272413
    36  H   18.919834  16.605683  15.571390  15.840336  14.232286
    37  C   13.955587  11.768122  10.998542  11.539722   9.612554
    38  H   13.663149  11.552762  10.898397  11.526320   9.521325
    39  H    9.344857   7.029932   5.930598   6.192815   4.671419
    40  H    9.245223   7.046499   6.222428   6.725841   4.939993
                   11         12         13         14         15
    11  H    0.000000
    12  C    2.164659   0.000000
    13  C    3.407336   1.404038   0.000000
    14  H    4.314036   2.165611   1.082891   0.000000
    15  C    2.721329   1.484842   2.512618   2.737141   0.000000
    16  O    3.937972   2.350285   2.821623   2.547682   1.223872
    17  O    2.520945   2.456989   3.736716   4.086919   1.360312
    18  C    3.876126   2.431766   1.397892   2.143655   3.795603
    19  H    4.958851   3.402623   2.139892   2.442663   4.651207
    20  H    4.068994   4.362785   5.586776   5.807660   3.155493
    21  H    4.593180   4.072115   5.027017   4.947677   2.597206
    22  C    6.672058   6.634030   7.658791   7.590566   5.235628
    23  O    5.632843   5.952174   7.123750   7.243502   4.677523
    24  O    6.698314   6.265019   7.118760   6.897965   4.828579
    25  C    8.014805   8.086634   9.124340   9.039302   6.681421
    26  C    8.350067   8.760906   9.915334   9.956420   7.432336
    27  H    7.697504   8.344801   9.577984   9.734141   7.109483
    28  C    9.709407  10.144419  11.292114  11.308192   8.803182
    29  H   10.109743  10.742465  11.950935  12.043539   9.459719
    30  C   10.668622  10.873003  11.925931  11.822356   9.465347
    31  C   10.405688  10.334468  11.274096  11.058043   8.884197
    32  H   11.277748  11.061781  11.921904  11.623645   9.594945
    33  C   12.093962  12.344983  13.403228  13.293549  10.937696
    34  O   12.974651  13.068853  14.054438  13.861554  11.628709
    35  O   12.533315  12.995473  14.130610  14.108013  11.637313
    36  H   13.485669  13.959475  15.093194  15.063212  12.598987
    37  C    9.149648   8.979437   9.893898   9.670446   7.527336
    38  H    9.174387   8.748013   9.537480   9.205152   7.284436
    39  H    3.909707   4.727660   6.034896   6.427915   3.807124
    40  H    4.525695   4.544538   5.604378   5.742508   3.437351
                   16         17         18         19         20
    16  O    0.000000
    17  O    2.245159   0.000000
    18  C    4.217876   4.888592   0.000000
    19  H    4.864008   5.837015   1.082861   0.000000
    20  H    3.571321   2.027589   6.762976   7.689106   0.000000
    21  H    2.421337   2.074828   6.367259   7.153036   1.795739
    22  C    5.111996   4.383577   8.959279   9.766814   3.375817
    23  O    4.873186   3.597345   8.334928   9.230419   2.658479
    24  O    4.445742   4.273651   8.466858   9.181437   3.624876
    25  C    6.534573   5.779203  10.429079  11.238408   4.493723
    26  C    7.477319   6.354635  11.158654  12.038969   4.914193
    27  H    7.329607   5.923625  10.753810  11.685635   4.517689
    28  C    8.807304   7.729962  12.544919  13.419490   6.201897
    29  H    9.571680   8.305597  13.158210  14.072962   6.741981
    30  C    9.297524   8.515964  13.233912  14.046055   7.006966
    31  C    8.553584   8.091681  12.622539  13.364042   6.713327
    32  H    9.153785   8.899447  13.291148  13.979996   7.565480
    33  C   10.763999   9.974269  14.711854  15.525182   8.408058
    34  O   11.342580  10.754598  15.393933  16.158216   9.219777
    35  O   11.584121  10.574269  15.397705  16.261794   8.954138
    36  H   12.535509  11.536250  16.362549  17.225107   9.896909
    37  C    7.175937   6.789349  11.244902  11.976153   5.545549
    38  H    6.770529   6.727426  10.911833  11.569161   5.671360
    39  H    4.476829   2.574092   7.054890   8.041633   2.498337
    40  H    3.695148   2.680101   6.761158   7.614575   3.099397
                   21         22         23         24         25
    21  H    0.000000
    22  C    2.896637   0.000000
    23  O    2.734871   1.360381   0.000000
    24  O    2.515707   1.223779   2.244272   0.000000
    25  C    4.250516   1.484612   2.457491   2.350195   0.000000
    26  C    5.131717   2.504334   2.857986   3.609606   1.405307
    27  H    5.030959   2.723726   2.523733   3.940105   2.166968
    28  C    6.441578   3.790375   4.255325   4.781159   2.433371
    29  H    7.199561   4.645807   4.874673   5.720497   3.406059
    30  C    6.977201   4.307360   5.110218   5.037642   2.822790
    31  C    6.351437   3.797185   4.891195   4.219308   2.433782
    32  H    7.056523   4.656732   5.842651   4.870891   3.407300
    33  C    8.437419   5.791701   6.561244   6.497969   4.307157
    34  O    9.083168   6.499440   7.421206   7.033753   5.038271
    35  O    9.209575   6.569676   7.125242   7.425990   5.117968
    36  H   10.160458   7.527232   8.092716   8.360109   6.067962
    37  C    5.017582   2.513873   3.738842   2.822516   1.405985
    38  H    4.820335   2.738716   4.088905   2.549346   2.167443
    39  H    3.082907   3.312538   2.018272   3.847009   4.461078
    40  H    2.532866   2.755901   2.053413   2.777613   4.143140
                   26         27         28         29         30
    26  C    0.000000
    27  H    1.082749   0.000000
    28  C    1.397348   2.141843   0.000000
    29  H    2.142496   2.444974   1.082809   0.000000
    30  C    2.432097   3.404461   1.404516   2.166227   0.000000
    31  C    2.796957   3.879572   2.423176   3.411200   1.406362
    32  H    3.879739   4.962405   3.410670   4.317441   2.167448
    33  C    3.790267   4.645825   2.505065   2.725331   1.484381
    34  O    4.781498   5.720747   3.610563   3.941138   2.351518
    35  O    4.267395   4.890044   2.870121   2.542410   2.458208
    36  H    5.234797   5.837430   3.837467   3.449043   3.347724
    37  C    2.423296   3.411280   2.798179   3.880859   2.434585
    38  H    3.411143   4.318038   3.880938   4.963670   3.408016
    39  H    4.613734   3.933370   5.971668   6.373788   6.995342
    40  H    4.769303   4.441670   6.143470   6.780085   6.888997
                   31         32         33         34         35
    31  C    0.000000
    32  H    1.082886   0.000000
    33  C    2.512165   2.735378   0.000000
    34  O    2.822819   2.548034   1.222687   0.000000
    35  O    3.735075   4.078297   1.351232   2.225196   0.000000
    36  H    4.532960   4.717481   2.029218   2.467439   0.967779
    37  C    1.398590   2.144363   3.796359   4.219805   4.892481
    38  H    2.144421   2.449461   4.655190   4.870669   5.841303
    39  H    6.891725   7.856766   8.400321   9.336906   8.803963
    40  H    6.467167   7.298029   8.352365   9.125925   8.985574
                   36         37         38         39         40
    36  H    0.000000
    37  C    5.765376   0.000000
    38  H    6.669529   1.082872   0.000000
    39  H    9.759441   5.754339   6.044623   0.000000
    40  H    9.948298   5.178357   5.193718   1.799048   0.000000
 Stoichiometry    C18H14O8
 Framework group  C1[X(C18H14O8)]
 Deg. of freedom   114
 Full point group                 C1      NOp   1
 Largest Abelian subgroup         C1      NOp   1
 Largest concise Abelian subgroup C1      NOp   1
                         Standard orientation:                         
 ---------------------------------------------------------------------
 Center     Atomic      Atomic             Coordinates (Angstroms)
 Number     Number       Type             X           Y           Z
 ---------------------------------------------------------------------
      1          6           0        0.369226   -0.699273    0.578395
      2          6           0       -0.335818   -0.062611   -0.621683
      3          6           0       -8.254372   -0.512415    0.154544
      4          8           0       -8.728376   -1.780627    0.151487
      5          1           0       -8.175151   -2.564332    0.059310
      6          8           0       -9.053877    0.403341    0.273672
      7          6           0       -6.795755   -0.200396    0.016731
      8          6           0       -5.824717   -1.213583   -0.116835
      9          1           0       -6.092285   -2.257855   -0.125250
     10          6           0       -4.471194   -0.888383   -0.242969
     11          1           0       -3.748784   -1.688779   -0.343846
     12          6           0       -4.053636    0.451831   -0.240853
     13          6           0       -5.016346    1.465242   -0.108522
     14          1           0       -4.721575    2.507225   -0.102724
     15          6           0       -2.612751    0.783873   -0.376318
     16          8           0       -2.251343    1.953104   -0.388351
     17          8           0       -1.702432   -0.222244   -0.473777
     18          6           0       -6.370530    1.142953    0.019605
     19          1           0       -7.088611    1.947117    0.120933
     20          1           0       -0.023273   -0.584256   -1.551038
     21          1           0       -0.047415    1.005398   -0.716118
     22          6           0        2.548030    0.384375    0.410160
     23          8           0        1.744690   -0.713296    0.430166
     24          8           0        2.072388    1.504029    0.543478
     25          6           0        4.014314    0.212393    0.253619
     26          6           0        4.564692   -1.075622    0.139653
     27          1           0        3.927655   -1.950871    0.161282
     28          6           0        5.944463   -1.247775    0.001183
     29          1           0        6.341873   -2.251609   -0.081632
     30          6           0        6.801412   -0.135366   -0.027966
     31          6           0        6.251847    1.154449    0.082528
     32          1           0        6.891026    2.028341    0.062433
     33          6           0        8.266725   -0.324347   -0.171248
     34          8           0        9.013746    0.643223   -0.198310
     35          8           0        8.783735   -1.568925   -0.268995
     36          1           0        9.736859   -1.710386   -0.359207
     37          6           0        4.871031    1.326792    0.222882
     38          1           0        4.472690    2.330107    0.308296
     39          1           0        0.030430   -1.754391    0.655677
     40          1           0        0.088598   -0.177367    1.519498
 ---------------------------------------------------------------------
 Rotational constants (GHZ):      1.1054199      0.0423848      0.0410824
 Standard basis: 6-31G(d) (6D, 7F)
 There are   418 symmetry adapted basis functions of A   symmetry.
 Integral buffers will be    131072 words long.
 Raffenetti 2 integral format.
 Two-electron integral symmetry is turned on.
   418 basis functions,   784 primitive gaussians,   418 cartesian basis functions
    93 alpha electrons       93 beta electrons
       nuclear repulsion energy      1992.9726681679 Hartrees.
 NAtoms=   40 NActive=   40 NUniq=   40 SFac= 7.50D-01 NAtFMM=   80 NAOKFM=F Big=F
 One-electron integrals computed using PRISM.
 NBasis=   418 RedAO= T  NBF=   418
 NBsUse=   418 1.00D-06 NBFU=   418
 Harris functional with IExCor=  402 diagonalized for initial guess.
 ExpMin= 1.61D-01 ExpMax= 5.48D+03 ExpMxC= 8.25D+02 IAcc=1 IRadAn=         1 AccDes= 0.00D+00
 HarFok:  IExCor=  402 AccDes= 0.00D+00 IRadAn=         1 IDoV= 1
 ScaDFX=  1.000000  1.000000  1.000000  1.000000
 FoFCou: FMM=F IPFlag=           0 FMFlag=      100000 FMFlg1=           0
         NFxFlg=           0 DoJE=T BraDBF=F KetDBF=T FulRan=T
         Omega=  0.000000  0.000000  1.000000  0.000000  0.000000 ICntrl=     500 IOpCl=  0
         NMat0=    1 NMatS0=    1 NMatT0=    0 NMatD0=    1 NMtDS0=    0 NMtDT0=    0
         I1Cent=           4 NGrid=           0.
 Petite list used in FoFCou.
 Initial guess orbital symmetries:
       Occupied  (A) (A) (A) (A) (A) (A) (A) (A) (A) (A) (A) (A)
                 (A) (A) (A) (A) (A) (A) (A) (A) (A) (A) (A) (A)
                 (A) (A) (A) (A) (A) (A) (A) (A) (A) (A) (A) (A)
                 (A) (A) (A) (A) (A) (A) (A) (A) (A) (A) (A) (A)
                 (A) (A) (A) (A) (A) (A) (A) (A) (A) (A) (A) (A)
                 (A) (A) (A) (A) (A) (A) (A) (A) (A) (A) (A) (A)
                 (A) (A) (A) (A) (A) (A) (A) (A) (A) (A) (A) (A)
                 (A) (A) (A) (A) (A) (A) (A) (A) (A)
       Virtual   (A) (A) (A) (A) (A) (A) (A) (A) (A) (A) (A) (A)
                 (A) (A) (A) (A) (A) (A) (A) (A) (A) (A) (A) (A)
                 (A) (A) (A) (A) (A) (A) (A) (A) (A) (A) (A) (A)
                 (A) (A) (A) (A) (A) (A) (A) (A) (A) (A) (A) (A)
                 (A) (A) (A) (A) (A) (A) (A) (A) (A) (A) (A) (A)
                 (A) (A) (A) (A) (A) (A) (A) (A) (A) (A) (A) (A)
                 (A) (A) (A) (A) (A) (A) (A) (A) (A) (A) (A) (A)
                 (A) (A) (A) (A) (A) (A) (A) (A) (A) (A) (A) (A)
                 (A) (A) (A) (A) (A) (A) (A) (A) (A) (A) (A) (A)
                 (A) (A) (A) (A) (A) (A) (A) (A) (A) (A) (A) (A)
                 (A) (A) (A) (A) (A) (A) (A) (A) (A) (A) (A) (A)
                 (A) (A) (A) (A) (A) (A) (A) (A) (A) (A) (A) (A)
                 (A) (A) (A) (A) (A) (A) (A) (A) (A) (A) (A) (A)
                 (A) (A) (A) (A) (A) (A) (A) (A) (A) (A) (A) (A)
                 (A) (A) (A) (A) (A) (A) (A) (A) (A) (A) (A) (A)
                 (A) (A) (A) (A) (A) (A) (A) (A) (A) (A) (A) (A)
                 (A) (A) (A) (A) (A) (A) (A) (A) (A) (A) (A) (A)
                 (A) (A) (A) (A) (A) (A) (A) (A) (A) (A) (A) (A)
                 (A) (A) (A) (A) (A) (A) (A) (A) (A) (A) (A) (A)
                 (A) (A) (A) (A) (A) (A) (A) (A) (A) (A) (A) (A)
                 (A) (A) (A) (A) (A) (A) (A) (A) (A) (A) (A) (A)
                 (A) (A) (A) (A) (A) (A) (A) (A) (A) (A) (A) (A)
                 (A) (A) (A) (A) (A) (A) (A) (A) (A) (A) (A) (A)
                 (A) (A) (A) (A) (A) (A) (A) (A) (A) (A) (A) (A)
                 (A) (A) (A) (A) (A) (A) (A) (A) (A) (A) (A) (A)
                 (A) (A) (A) (A) (A) (A) (A) (A) (A) (A) (A) (A)
                 (A) (A) (A) (A) (A) (A) (A) (A) (A) (A) (A) (A)
                 (A)
 The electronic state of the initial guess is 1-A.
 Requested convergence on RMS density matrix=1.00D-08 within 128 cycles.
 Requested convergence on MAX density matrix=1.00D-06.
 Requested convergence on             energy=1.00D-06.
 No special actions if energy rises.
 Integral accuracy reduced to 1.0D-05 until final iterations.
 Initial convergence to 1.0D-05 achieved.  Increase integral accuracy.
 SCF Done:  E(RB3LYP) =  -1296.15567609     A.U. after   15 cycles
             Convg  =    0.5915D-08             -V/T =  2.0093

 **********************************************************************

            Population analysis using the SCF density.

 **********************************************************************

 Orbital symmetries:
       Occupied  (A) (A) (A) (A) (A) (A) (A) (A) (A) (A) (A) (A)
                 (A) (A) (A) (A) (A) (A) (A) (A) (A) (A) (A) (A)
                 (A) (A) (A) (A) (A) (A) (A) (A) (A) (A) (A) (A)
                 (A) (A) (A) (A) (A) (A) (A) (A) (A) (A) (A) (A)
                 (A) (A) (A) (A) (A) (A) (A) (A) (A) (A) (A) (A)
                 (A) (A) (A) (A) (A) (A) (A) (A) (A) (A) (A) (A)
                 (A) (A) (A) (A) (A) (A) (A) (A) (A) (A) (A) (A)
                 (A) (A) (A) (A) (A) (A) (A) (A) (A)
       Virtual   (A) (A) (A) (A) (A) (A) (A) (A) (A) (A) (A) (A)
                 (A) (A) (A) (A) (A) (A) (A) (A) (A) (A) (A) (A)
                 (A) (A) (A) (A) (A) (A) (A) (A) (A) (A) (A) (A)
                 (A) (A) (A) (A) (A) (A) (A) (A) (A) (A) (A) (A)
                 (A) (A) (A) (A) (A) (A) (A) (A) (A) (A) (A) (A)
                 (A) (A) (A) (A) (A) (A) (A) (A) (A) (A) (A) (A)
                 (A) (A) (A) (A) (A) (A) (A) (A) (A) (A) (A) (A)
                 (A) (A) (A) (A) (A) (A) (A) (A) (A) (A) (A) (A)
                 (A) (A) (A) (A) (A) (A) (A) (A) (A) (A) (A) (A)
                 (A) (A) (A) (A) (A) (A) (A) (A) (A) (A) (A) (A)
                 (A) (A) (A) (A) (A) (A) (A) (A) (A) (A) (A) (A)
                 (A) (A) (A) (A) (A) (A) (A) (A) (A) (A) (A) (A)
                 (A) (A) (A) (A) (A) (A) (A) (A) (A) (A) (A) (A)
                 (A) (A) (A) (A) (A) (A) (A) (A) (A) (A) (A) (A)
                 (A) (A) (A) (A) (A) (A) (A) (A) (A) (A) (A) (A)
                 (A) (A) (A) (A) (A) (A) (A) (A) (A) (A) (A) (A)
                 (A) (A) (A) (A) (A) (A) (A) (A) (A) (A) (A) (A)
                 (A) (A) (A) (A) (A) (A) (A) (A) (A) (A) (A) (A)
                 (A) (A) (A) (A) (A) (A) (A) (A) (A) (A) (A) (A)
                 (A) (A) (A) (A) (A) (A) (A) (A) (A) (A) (A) (A)
                 (A) (A) (A) (A) (A) (A) (A) (A) (A) (A) (A) (A)
                 (A) (A) (A) (A) (A) (A) (A) (A) (A) (A) (A) (A)
                 (A) (A) (A) (A) (A) (A) (A) (A) (A) (A) (A) (A)
                 (A) (A) (A) (A) (A) (A) (A) (A) (A) (A) (A) (A)
                 (A) (A) (A) (A) (A) (A) (A) (A) (A) (A) (A) (A)
                 (A) (A) (A) (A) (A) (A) (A) (A) (A) (A) (A) (A)
                 (A) (A) (A) (A) (A) (A) (A) (A) (A) (A) (A) (A)
                 (A)
 The electronic state is 1-A.
 Alpha  occ. eigenvalues --  -19.20766 -19.20607 -19.20374 -19.20164 -19.14466
 Alpha  occ. eigenvalues --  -19.14243 -19.13762 -19.13761 -10.33572 -10.33440
 Alpha  occ. eigenvalues --  -10.33344 -10.33334 -10.26562 -10.25673 -10.23396
 Alpha  occ. eigenvalues --  -10.23333 -10.23140 -10.23101 -10.22736 -10.22302
 Alpha  occ. eigenvalues --  -10.21945 -10.21818 -10.21796 -10.21786 -10.21725
 Alpha  occ. eigenvalues --  -10.21723  -1.12201  -1.11610  -1.10640  -1.10317
 Alpha  occ. eigenvalues --   -1.02728  -1.02322  -1.01742  -1.01294  -0.88503
 Alpha  occ. eigenvalues --   -0.88239  -0.81168  -0.79948  -0.78104  -0.77351
 Alpha  occ. eigenvalues --   -0.76886  -0.72234  -0.68955  -0.67499  -0.64446
 Alpha  occ. eigenvalues --   -0.63433  -0.63138  -0.62092  -0.59182  -0.58036
 Alpha  occ. eigenvalues --   -0.57049  -0.55894  -0.54697  -0.53514  -0.50363
 Alpha  occ. eigenvalues --   -0.49174  -0.48783  -0.48194  -0.48039  -0.47040
 Alpha  occ. eigenvalues --   -0.46288  -0.46081  -0.45846  -0.45441  -0.45224
 Alpha  occ. eigenvalues --   -0.44764  -0.44519  -0.44262  -0.44082  -0.43484
 Alpha  occ. eigenvalues --   -0.41298  -0.41067  -0.40241  -0.38341  -0.38131
 Alpha  occ. eigenvalues --   -0.37579  -0.37313  -0.37120  -0.36686  -0.35745
 Alpha  occ. eigenvalues --   -0.34244  -0.32589  -0.32261  -0.32080  -0.29845
 Alpha  occ. eigenvalues --   -0.28254  -0.28101  -0.27934  -0.27883  -0.27693
 Alpha  occ. eigenvalues --   -0.27650  -0.27605  -0.27414
 Alpha virt. eigenvalues --   -0.08411  -0.08280  -0.02867  -0.02440  -0.00177
 Alpha virt. eigenvalues --    0.00011   0.03273   0.05461   0.07220   0.07340
 Alpha virt. eigenvalues --    0.08117   0.09506   0.10480   0.11214   0.12577
 Alpha virt. eigenvalues --    0.13401   0.13483   0.14269   0.15837   0.16104
 Alpha virt. eigenvalues --    0.16399   0.16990   0.17285   0.18437   0.18947
 Alpha virt. eigenvalues --    0.19721   0.20763   0.21937   0.22400   0.24605
 Alpha virt. eigenvalues --    0.24838   0.25456   0.25995   0.26525   0.27109
 Alpha virt. eigenvalues --    0.28432   0.28819   0.29262   0.29837   0.31715
 Alpha virt. eigenvalues --    0.32180   0.34780   0.36861   0.38386   0.38926
 Alpha virt. eigenvalues --    0.41699   0.42229   0.46733   0.47649   0.47805
 Alpha virt. eigenvalues --    0.48749   0.49150   0.49563   0.49884   0.50474
 Alpha virt. eigenvalues --    0.51769   0.52456   0.53054   0.53348   0.53363
 Alpha virt. eigenvalues --    0.53665   0.54638   0.56081   0.56433   0.56665
 Alpha virt. eigenvalues --    0.56978   0.57084   0.57351   0.57502   0.58265
 Alpha virt. eigenvalues --    0.58633   0.59044   0.59552   0.60200   0.60376
 Alpha virt. eigenvalues --    0.62178   0.63089   0.63192   0.63513   0.63731
 Alpha virt. eigenvalues --    0.64305   0.66404   0.68659   0.69130   0.69354
 Alpha virt. eigenvalues --    0.69572   0.71516   0.72164   0.73240   0.74421
 Alpha virt. eigenvalues --    0.75053   0.77562   0.77623   0.78256   0.78952
 Alpha virt. eigenvalues --    0.79948   0.80234   0.80365   0.80679   0.81161
 Alpha virt. eigenvalues --    0.81588   0.82063   0.82405   0.83000   0.83459
 Alpha virt. eigenvalues --    0.83841   0.85163   0.86523   0.87342   0.88401
 Alpha virt. eigenvalues --    0.88920   0.89965   0.91982   0.92040   0.92471
 Alpha virt. eigenvalues --    0.92780   0.93944   0.94238   0.95009   0.95470
 Alpha virt. eigenvalues --    0.96191   0.97825   0.98103   0.99212   1.00235
 Alpha virt. eigenvalues --    1.01293   1.02389   1.02972   1.03350   1.03846
 Alpha virt. eigenvalues --    1.05516   1.06731   1.07391   1.09460   1.11354
 Alpha virt. eigenvalues --    1.12373   1.13394   1.15068   1.16099   1.16646
 Alpha virt. eigenvalues --    1.18986   1.20861   1.22028   1.22375   1.22813
 Alpha virt. eigenvalues --    1.24006   1.24753   1.25850   1.26973   1.27233
 Alpha virt. eigenvalues --    1.28193   1.28470   1.28927   1.29811   1.31830
 Alpha virt. eigenvalues --    1.32974   1.34258   1.35305   1.36251   1.39224
 Alpha virt. eigenvalues --    1.40307   1.40675   1.41776   1.42057   1.42456
 Alpha virt. eigenvalues --    1.43056   1.43577   1.45312   1.45684   1.46647
 Alpha virt. eigenvalues --    1.47526   1.48197   1.48259   1.48813   1.51046
 Alpha virt. eigenvalues --    1.52091   1.53507   1.57325   1.60406   1.62647
 Alpha virt. eigenvalues --    1.63058   1.65612   1.65942   1.67617   1.68312
 Alpha virt. eigenvalues --    1.68412   1.69320   1.70740   1.72903   1.74075
 Alpha virt. eigenvalues --    1.74722   1.74778   1.76213   1.76542   1.78252
 Alpha virt. eigenvalues --    1.78390   1.79176   1.79898   1.81920   1.82957
 Alpha virt. eigenvalues --    1.84039   1.84558   1.85140   1.85824   1.86047
 Alpha virt. eigenvalues --    1.87528   1.88352   1.89041   1.89785   1.91097
 Alpha virt. eigenvalues --    1.92703   1.93173   1.94571   1.95529   1.96972
 Alpha virt. eigenvalues --    1.98069   1.98709   1.99432   2.00157   2.00640
 Alpha virt. eigenvalues --    2.01699   2.03696   2.04993   2.05453   2.05972
 Alpha virt. eigenvalues --    2.07113   2.07897   2.10183   2.10493   2.11034
 Alpha virt. eigenvalues --    2.11881   2.12684   2.12996   2.13275   2.13424
 Alpha virt. eigenvalues --    2.15217   2.20304   2.21689   2.22685   2.23288
 Alpha virt. eigenvalues --    2.23681   2.26044   2.27584   2.27706   2.27926
 Alpha virt. eigenvalues --    2.30072   2.30527   2.31499   2.35018   2.36547
 Alpha virt. eigenvalues --    2.40168   2.41734   2.42083   2.43814   2.45893
 Alpha virt. eigenvalues --    2.47167   2.47677   2.47781   2.49875   2.50518
 Alpha virt. eigenvalues --    2.54181   2.55799   2.56412   2.58010   2.58571
 Alpha virt. eigenvalues --    2.59310   2.59772   2.64349   2.64968   2.66776
 Alpha virt. eigenvalues --    2.68592   2.69143   2.69868   2.71398   2.72280
 Alpha virt. eigenvalues --    2.73077   2.73529   2.80225   2.80346   2.81600
 Alpha virt. eigenvalues --    2.82243   2.85126   2.86910   2.89976   2.91430
 Alpha virt. eigenvalues --    2.93691   2.94440   2.96236   2.96546   3.05085
 Alpha virt. eigenvalues --    3.06159   3.10523   3.10850   3.16088   3.16317
 Alpha virt. eigenvalues --    3.20920   3.21324   3.41390   3.41808   3.86570
 Alpha virt. eigenvalues --    3.87018   3.97264   4.00191   4.04006   4.04795
 Alpha virt. eigenvalues --    4.08275   4.08595   4.08753   4.09864   4.18263
 Alpha virt. eigenvalues --    4.19249   4.21445   4.27746   4.28576   4.32058
 Alpha virt. eigenvalues --    4.32350   4.36357   4.37664   4.42893   4.47980
 Alpha virt. eigenvalues --    4.49276   4.50161   4.55535   4.72016   4.72350
          Condensed to atoms (all electrons):
              1          2          3          4          5          6
     1  C    4.878327   0.353604   0.000000   0.000000   0.000000   0.000000
     2  C    0.353604   4.961716   0.000000   0.000000   0.000000   0.000000
     3  C    0.000000   0.000000   4.379885   0.267356  -0.004989   0.578501
     4  O    0.000000   0.000000   0.267356   8.270473   0.219622  -0.082859
     5  H    0.000000   0.000000  -0.004989   0.219622   0.349441   0.004500
     6  O    0.000000   0.000000   0.578501  -0.082859   0.004500   8.026480
     7  C    0.000000   0.000000   0.284991  -0.094368  -0.002232  -0.104638
     8  C    0.000000   0.000001  -0.035193   0.002236   0.003530   0.003934
     9  H    0.000000   0.000000  -0.006929   0.004294   0.007821   0.000061
    10  C    0.000002  -0.000613   0.003856   0.000435   0.000262  -0.000054
    11  H    0.000017  -0.000486  -0.000092   0.000003  -0.000009   0.000000
    12  C   -0.000138   0.005428   0.000121  -0.000013   0.000006  -0.000024
    13  C    0.000002  -0.000079   0.005628  -0.000023  -0.000016   0.001132
    14  H    0.000000  -0.000006  -0.000095   0.000000   0.000000   0.000002
    15  C   -0.001564  -0.016053   0.000003   0.000000   0.000000   0.000000
    16  O   -0.000131  -0.003103   0.000000   0.000000   0.000000   0.000000
    17  O   -0.036598   0.189654   0.000000   0.000000   0.000000   0.000000
    18  C    0.000000   0.000000  -0.030411   0.004166  -0.000364   0.003603
    19  H    0.000000   0.000000  -0.008358   0.000196  -0.000021   0.013554
    20  H   -0.049237   0.367679   0.000000   0.000000   0.000000   0.000000
    21  H   -0.031803   0.353677   0.000000   0.000000   0.000000   0.000000
    22  C   -0.020481  -0.003665   0.000000   0.000000   0.000000   0.000000
    23  O    0.203665  -0.033674   0.000000   0.000000   0.000000   0.000000
    24  O    0.009243  -0.006068   0.000000   0.000000   0.000000   0.000000
    25  C    0.005867  -0.000474   0.000000   0.000000   0.000000   0.000000
    26  C   -0.000384   0.000026   0.000000   0.000000   0.000000   0.000000
    27  H   -0.000254   0.000014   0.000000   0.000000   0.000000   0.000000
    28  C    0.000004   0.000000   0.000000   0.000000   0.000000   0.000000
    29  H    0.000000   0.000000   0.000000   0.000000   0.000000   0.000000
    30  C    0.000000   0.000000   0.000000   0.000000   0.000000   0.000000
    31  C    0.000000   0.000000   0.000000   0.000000   0.000000   0.000000
    32  H    0.000000   0.000000   0.000000   0.000000   0.000000   0.000000
    33  C    0.000000   0.000000   0.000000   0.000000   0.000000   0.000000
    34  O    0.000000   0.000000   0.000000   0.000000   0.000000   0.000000
    35  O    0.000000   0.000000   0.000000   0.000000   0.000000   0.000000
    36  H    0.000000   0.000000   0.000000   0.000000   0.000000   0.000000
    37  C   -0.000123   0.000007   0.000000   0.000000   0.000000   0.000000
    38  H   -0.000013   0.000002   0.000000   0.000000   0.000000   0.000000
    39  H    0.378121  -0.047009   0.000000   0.000000   0.000000   0.000000
    40  H    0.360185  -0.040233   0.000000   0.000000   0.000000   0.000000
              7          8          9         10         11         12
     1  C    0.000000   0.000000   0.000000   0.000002   0.000017  -0.000138
     2  C    0.000000   0.000001   0.000000  -0.000613  -0.000486   0.005428
     3  C    0.284991  -0.035193  -0.006929   0.003856  -0.000092   0.000121
     4  O   -0.094368   0.002236   0.004294   0.000435   0.000003  -0.000013
     5  H   -0.002232   0.003530   0.007821   0.000262  -0.000009   0.000006
     6  O   -0.104638   0.003934   0.000061  -0.000054   0.000000  -0.000024
     7  C    5.018661   0.465715  -0.052527  -0.022912   0.003462  -0.025960
     8  C    0.465715   5.082769   0.343857   0.470099  -0.041357  -0.020502
     9  H   -0.052527   0.343857   0.613525  -0.030671  -0.005286   0.003167
    10  C   -0.022912   0.470099  -0.030671   5.046184   0.357695   0.477734
    11  H    0.003462  -0.041357  -0.005286   0.357695   0.558931  -0.038130
    12  C   -0.025960  -0.020502   0.003167   0.477734  -0.038130   4.918080
    13  C   -0.025095  -0.039819   0.000498  -0.071894   0.005233   0.512268
    14  H    0.003287   0.000389   0.000018   0.005641  -0.000144  -0.035502
    15  C    0.000373   0.004666  -0.000152  -0.042165  -0.010300   0.319505
    16  O   -0.000013  -0.000090   0.000001   0.004752   0.000162  -0.088466
    17  O   -0.000001   0.000413  -0.000003   0.004058   0.011427  -0.083078
    18  C    0.501466  -0.061279   0.005575  -0.036520   0.000346  -0.023800
    19  H   -0.035839   0.005426  -0.000136   0.000589   0.000015   0.003166
    20  H    0.000000  -0.000001   0.000000  -0.000023  -0.000027   0.000004
    21  H    0.000000   0.000001   0.000000   0.000063   0.000033   0.000519
    22  C    0.000000   0.000000   0.000000   0.000000   0.000000   0.000000
    23  O    0.000000   0.000000   0.000000   0.000000   0.000000   0.000001
    24  O    0.000000   0.000000   0.000000   0.000000   0.000000   0.000000
    25  C    0.000000   0.000000   0.000000   0.000000   0.000000   0.000000
    26  C    0.000000   0.000000   0.000000   0.000000   0.000000   0.000000
    27  H    0.000000   0.000000   0.000000   0.000000   0.000000   0.000000
    28  C    0.000000   0.000000   0.000000   0.000000   0.000000   0.000000
    29  H    0.000000   0.000000   0.000000   0.000000   0.000000   0.000000
    30  C    0.000000   0.000000   0.000000   0.000000   0.000000   0.000000
    31  C    0.000000   0.000000   0.000000   0.000000   0.000000   0.000000
    32  H    0.000000   0.000000   0.000000   0.000000   0.000000   0.000000
    33  C    0.000000   0.000000   0.000000   0.000000   0.000000   0.000000
    34  O    0.000000   0.000000   0.000000   0.000000   0.000000   0.000000
    35  O    0.000000   0.000000   0.000000   0.000000   0.000000   0.000000
    36  H    0.000000   0.000000   0.000000   0.000000   0.000000   0.000000
    37  C    0.000000   0.000000   0.000000   0.000000   0.000000   0.000000
    38  H    0.000000   0.000000   0.000000   0.000000   0.000000   0.000000
    39  H    0.000000   0.000001   0.000000   0.000000   0.000159  -0.000016
    40  H    0.000000   0.000000   0.000000  -0.000004  -0.000007  -0.000006
             13         14         15         16         17         18
     1  C    0.000002   0.000000  -0.001564  -0.000131  -0.036598   0.000000
     2  C   -0.000079  -0.000006  -0.016053  -0.003103   0.189654   0.000000
     3  C    0.005628  -0.000095   0.000003   0.000000   0.000000  -0.030411
     4  O   -0.000023   0.000000   0.000000   0.000000   0.000000   0.004166
     5  H   -0.000016   0.000000   0.000000   0.000000   0.000000  -0.000364
     6  O    0.001132   0.000002   0.000000   0.000000   0.000000   0.003603
     7  C   -0.025095   0.003287   0.000373  -0.000013  -0.000001   0.501466
     8  C   -0.039819   0.000389   0.004666  -0.000090   0.000413  -0.061279
     9  H    0.000498   0.000018  -0.000152   0.000001  -0.000003   0.005575
    10  C   -0.071894   0.005641  -0.042165   0.004752   0.004058  -0.036520
    11  H    0.005233  -0.000144  -0.010300   0.000162   0.011427   0.000346
    12  C    0.512268  -0.035502   0.319505  -0.088466  -0.083078  -0.023800
    13  C    5.051534   0.356865  -0.037604   0.002651   0.003727   0.430865
    14  H    0.356865   0.529733  -0.008170   0.012191   0.000170  -0.038962
    15  C   -0.037604  -0.008170   4.406532   0.546580   0.251229   0.006149
    16  O    0.002651   0.012191   0.546580   8.064206  -0.094071   0.000979
    17  O    0.003727   0.000170   0.251229  -0.094071   8.287188  -0.000014
    18  C    0.430865  -0.038962   0.006149   0.000979  -0.000014   5.045449
    19  H   -0.038790  -0.004419  -0.000138   0.000001   0.000000   0.357924
    20  H    0.000003   0.000000   0.001964   0.000201  -0.036271   0.000000
    21  H   -0.000039  -0.000007  -0.002489   0.019150  -0.030824   0.000000
    22  C    0.000000   0.000000  -0.000009  -0.000010   0.000041   0.000000
    23  O    0.000000   0.000000   0.000041   0.000001   0.001323   0.000000
    24  O    0.000000   0.000000  -0.000028  -0.000003   0.000047   0.000000
    25  C    0.000000   0.000000   0.000000   0.000000   0.000000   0.000000
    26  C    0.000000   0.000000   0.000000   0.000000   0.000000   0.000000
    27  H    0.000000   0.000000   0.000000   0.000000   0.000000   0.000000
    28  C    0.000000   0.000000   0.000000   0.000000   0.000000   0.000000
    29  H    0.000000   0.000000   0.000000   0.000000   0.000000   0.000000
    30  C    0.000000   0.000000   0.000000   0.000000   0.000000   0.000000
    31  C    0.000000   0.000000   0.000000   0.000000   0.000000   0.000000
    32  H    0.000000   0.000000   0.000000   0.000000   0.000000   0.000000
    33  C    0.000000   0.000000   0.000000   0.000000   0.000000   0.000000
    34  O    0.000000   0.000000   0.000000   0.000000   0.000000   0.000000
    35  O    0.000000   0.000000   0.000000   0.000000   0.000000   0.000000
    36  H    0.000000   0.000000   0.000000   0.000000   0.000000   0.000000
    37  C    0.000000   0.000000   0.000000   0.000000   0.000000   0.000000
    38  H    0.000000   0.000000   0.000000   0.000000   0.000000   0.000000
    39  H    0.000000   0.000000   0.000027   0.000009   0.005212   0.000000
    40  H   -0.000001   0.000000   0.001694   0.000111   0.003073   0.000000
             19         20         21         22         23         24
     1  C    0.000000  -0.049237  -0.031803  -0.020481   0.203665   0.009243
     2  C    0.000000   0.367679   0.353677  -0.003665  -0.033674  -0.006068
     3  C   -0.008358   0.000000   0.000000   0.000000   0.000000   0.000000
     4  O    0.000196   0.000000   0.000000   0.000000   0.000000   0.000000
     5  H   -0.000021   0.000000   0.000000   0.000000   0.000000   0.000000
     6  O    0.013554   0.000000   0.000000   0.000000   0.000000   0.000000
     7  C   -0.035839   0.000000   0.000000   0.000000   0.000000   0.000000
     8  C    0.005426  -0.000001   0.000001   0.000000   0.000000   0.000000
     9  H   -0.000136   0.000000   0.000000   0.000000   0.000000   0.000000
    10  C    0.000589  -0.000023   0.000063   0.000000   0.000000   0.000000
    11  H    0.000015  -0.000027   0.000033   0.000000   0.000000   0.000000
    12  C    0.003166   0.000004   0.000519   0.000000   0.000001   0.000000
    13  C   -0.038790   0.000003  -0.000039   0.000000   0.000000   0.000000
    14  H   -0.004419   0.000000  -0.000007   0.000000   0.000000   0.000000
    15  C   -0.000138   0.001964  -0.002489  -0.000009   0.000041  -0.000028
    16  O    0.000001   0.000201   0.019150  -0.000010   0.000001  -0.000003
    17  O    0.000000  -0.036271  -0.030824   0.000041   0.001323   0.000047
    18  C    0.357924   0.000000   0.000000   0.000000   0.000000   0.000000
    19  H    0.525887   0.000000   0.000000   0.000000   0.000000   0.000000
    20  H    0.000000   0.593041  -0.035723   0.000863   0.004884   0.000241
    21  H    0.000000  -0.035723   0.507088   0.003965  -0.001732   0.010337
    22  C    0.000000   0.000863   0.003965   4.409505   0.252779   0.528429
    23  O    0.000000   0.004884  -0.001732   0.252779   8.275171  -0.097452
    24  O    0.000000   0.000241   0.010337   0.528429  -0.097452   8.087708
    25  C    0.000000  -0.000076   0.000327   0.334251  -0.082651  -0.087840
    26  C    0.000000   0.000012  -0.000019  -0.041952   0.003689   0.004564
    27  H    0.000000   0.000006  -0.000002  -0.009882   0.010077   0.000152
    28  C    0.000000   0.000000   0.000000   0.004582   0.000388  -0.000085
    29  H    0.000000   0.000000   0.000000  -0.000131  -0.000002   0.000000
    30  C    0.000000   0.000000   0.000000   0.000363  -0.000003  -0.000011
    31  C    0.000000   0.000000   0.000000   0.006061  -0.000015   0.000914
    32  H    0.000000   0.000000   0.000000  -0.000134   0.000000   0.000000
    33  C    0.000000   0.000000   0.000000   0.000003   0.000000   0.000000
    34  O    0.000000   0.000000   0.000000   0.000000   0.000000   0.000000
    35  O    0.000000   0.000000   0.000000   0.000000   0.000000   0.000000
    36  H    0.000000   0.000000   0.000000   0.000000   0.000000   0.000000
    37  C    0.000000  -0.000004  -0.000001  -0.037923   0.003759   0.002644
    38  H    0.000000   0.000000  -0.000001  -0.007923   0.000180   0.012078
    39  H    0.000000  -0.007010   0.004764   0.003148  -0.034523   0.000006
    40  H    0.000000   0.005784  -0.005981  -0.002606  -0.034018   0.007011
             25         26         27         28         29         30
     1  C    0.005867  -0.000384  -0.000254   0.000004   0.000000   0.000000
     2  C   -0.000474   0.000026   0.000014   0.000000   0.000000   0.000000
     3  C    0.000000   0.000000   0.000000   0.000000   0.000000   0.000000
     4  O    0.000000   0.000000   0.000000   0.000000   0.000000   0.000000
     5  H    0.000000   0.000000   0.000000   0.000000   0.000000   0.000000
     6  O    0.000000   0.000000   0.000000   0.000000   0.000000   0.000000
     7  C    0.000000   0.000000   0.000000   0.000000   0.000000   0.000000
     8  C    0.000000   0.000000   0.000000   0.000000   0.000000   0.000000
     9  H    0.000000   0.000000   0.000000   0.000000   0.000000   0.000000
    10  C    0.000000   0.000000   0.000000   0.000000   0.000000   0.000000
    11  H    0.000000   0.000000   0.000000   0.000000   0.000000   0.000000
    12  C    0.000000   0.000000   0.000000   0.000000   0.000000   0.000000
    13  C    0.000000   0.000000   0.000000   0.000000   0.000000   0.000000
    14  H    0.000000   0.000000   0.000000   0.000000   0.000000   0.000000
    15  C    0.000000   0.000000   0.000000   0.000000   0.000000   0.000000
    16  O    0.000000   0.000000   0.000000   0.000000   0.000000   0.000000
    17  O    0.000000   0.000000   0.000000   0.000000   0.000000   0.000000
    18  C    0.000000   0.000000   0.000000   0.000000   0.000000   0.000000
    19  H    0.000000   0.000000   0.000000   0.000000   0.000000   0.000000
    20  H   -0.000076   0.000012   0.000006   0.000000   0.000000   0.000000
    21  H    0.000327  -0.000019  -0.000002   0.000000   0.000000   0.000000
    22  C    0.334251  -0.041952  -0.009882   0.004582  -0.000131   0.000363
    23  O   -0.082651   0.003689   0.010077   0.000388  -0.000002  -0.000003
    24  O   -0.087840   0.004564   0.000152  -0.000085   0.000000  -0.000011
    25  C    4.902999   0.478527  -0.038909  -0.020020   0.003312  -0.026525
    26  C    0.478527   5.070647   0.358941   0.454276  -0.040086  -0.020884
    27  H   -0.038909   0.358941   0.555812  -0.039780  -0.004823   0.003383
    28  C   -0.020020   0.454276  -0.039780   5.067852   0.359578   0.477264
    29  H    0.003312  -0.040086  -0.004823   0.359578   0.550585  -0.036591
    30  C   -0.026525  -0.020884   0.003383   0.477264  -0.036591   4.936340
    31  C   -0.022272  -0.040848   0.000388  -0.071077   0.004989   0.511373
    32  H    0.003267   0.000479   0.000016   0.005243  -0.000146  -0.035749
    33  C    0.000137   0.004443  -0.000116  -0.035732  -0.009522   0.293797
    34  O   -0.000018  -0.000083   0.000000   0.004571   0.000129  -0.098918
    35  O   -0.000003   0.000323  -0.000002   0.003601   0.008394  -0.084871
    36  H    0.000000   0.000005   0.000000  -0.000652  -0.000291   0.008096
    37  C    0.509254  -0.068293   0.005095  -0.040975   0.000419  -0.023538
    38  H   -0.036045   0.005393  -0.000143   0.000452   0.000015   0.003311
    39  H    0.000134  -0.000074  -0.000043  -0.000002   0.000000   0.000000
    40  H   -0.000262   0.000070   0.000029   0.000001   0.000000   0.000000
             31         32         33         34         35         36
     1  C    0.000000   0.000000   0.000000   0.000000   0.000000   0.000000
     2  C    0.000000   0.000000   0.000000   0.000000   0.000000   0.000000
     3  C    0.000000   0.000000   0.000000   0.000000   0.000000   0.000000
     4  O    0.000000   0.000000   0.000000   0.000000   0.000000   0.000000
     5  H    0.000000   0.000000   0.000000   0.000000   0.000000   0.000000
     6  O    0.000000   0.000000   0.000000   0.000000   0.000000   0.000000
     7  C    0.000000   0.000000   0.000000   0.000000   0.000000   0.000000
     8  C    0.000000   0.000000   0.000000   0.000000   0.000000   0.000000
     9  H    0.000000   0.000000   0.000000   0.000000   0.000000   0.000000
    10  C    0.000000   0.000000   0.000000   0.000000   0.000000   0.000000
    11  H    0.000000   0.000000   0.000000   0.000000   0.000000   0.000000
    12  C    0.000000   0.000000   0.000000   0.000000   0.000000   0.000000
    13  C    0.000000   0.000000   0.000000   0.000000   0.000000   0.000000
    14  H    0.000000   0.000000   0.000000   0.000000   0.000000   0.000000
    15  C    0.000000   0.000000   0.000000   0.000000   0.000000   0.000000
    16  O    0.000000   0.000000   0.000000   0.000000   0.000000   0.000000
    17  O    0.000000   0.000000   0.000000   0.000000   0.000000   0.000000
    18  C    0.000000   0.000000   0.000000   0.000000   0.000000   0.000000
    19  H    0.000000   0.000000   0.000000   0.000000   0.000000   0.000000
    20  H    0.000000   0.000000   0.000000   0.000000   0.000000   0.000000
    21  H    0.000000   0.000000   0.000000   0.000000   0.000000   0.000000
    22  C    0.006061  -0.000134   0.000003   0.000000   0.000000   0.000000
    23  O   -0.000015   0.000000   0.000000   0.000000   0.000000   0.000000
    24  O    0.000914   0.000000   0.000000   0.000000   0.000000   0.000000
    25  C   -0.022272   0.003267   0.000137  -0.000018  -0.000003   0.000000
    26  C   -0.040848   0.000479   0.004443  -0.000083   0.000323   0.000005
    27  H    0.000388   0.000016  -0.000116   0.000000  -0.000002   0.000000
    28  C   -0.071077   0.005243  -0.035732   0.004571   0.003601  -0.000652
    29  H    0.004989  -0.000146  -0.009522   0.000129   0.008394  -0.000291
    30  C    0.511373  -0.035749   0.293797  -0.098918  -0.084871   0.008096
    31  C    5.059363   0.357474  -0.042886   0.002438   0.003780  -0.000107
    32  H    0.357474   0.532346  -0.008068   0.011869   0.000197  -0.000012
    33  C   -0.042886  -0.008068   4.393496   0.574475   0.284447  -0.006164
    34  O    0.002438   0.011869   0.574475   8.068555  -0.106007   0.006510
    35  O    0.003780   0.000197   0.284447  -0.106007   8.264213   0.229006
    36  H   -0.000107  -0.000012  -0.006164   0.006510   0.229006   0.335321
    37  C    0.434826  -0.039148   0.007122   0.001051  -0.000013   0.000000
    38  H   -0.039095  -0.004441  -0.000127   0.000001   0.000000   0.000000
    39  H    0.000000   0.000000   0.000000   0.000000   0.000000   0.000000
    40  H    0.000000   0.000000   0.000000   0.000000   0.000000   0.000000
             37         38         39         40
     1  C   -0.000123  -0.000013   0.378121   0.360185
     2  C    0.000007   0.000002  -0.047009  -0.040233
     3  C    0.000000   0.000000   0.000000   0.000000
     4  O    0.000000   0.000000   0.000000   0.000000
     5  H    0.000000   0.000000   0.000000   0.000000
     6  O    0.000000   0.000000   0.000000   0.000000
     7  C    0.000000   0.000000   0.000000   0.000000
     8  C    0.000000   0.000000   0.000001   0.000000
     9  H    0.000000   0.000000   0.000000   0.000000
    10  C    0.000000   0.000000   0.000000  -0.000004
    11  H    0.000000   0.000000   0.000159  -0.000007
    12  C    0.000000   0.000000  -0.000016  -0.000006
    13  C    0.000000   0.000000   0.000000  -0.000001
    14  H    0.000000   0.000000   0.000000   0.000000
    15  C    0.000000   0.000000   0.000027   0.001694
    16  O    0.000000   0.000000   0.000009   0.000111
    17  O    0.000000   0.000000   0.005212   0.003073
    18  C    0.000000   0.000000   0.000000   0.000000
    19  H    0.000000   0.000000   0.000000   0.000000
    20  H   -0.000004   0.000000  -0.007010   0.005784
    21  H   -0.000001  -0.000001   0.004764  -0.005981
    22  C   -0.037923  -0.007923   0.003148  -0.002606
    23  O    0.003759   0.000180  -0.034523  -0.034018
    24  O    0.002644   0.012078   0.000006   0.007011
    25  C    0.509254  -0.036045   0.000134  -0.000262
    26  C   -0.068293   0.005393  -0.000074   0.000070
    27  H    0.005095  -0.000143  -0.000043   0.000029
    28  C   -0.040975   0.000452  -0.000002   0.000001
    29  H    0.000419   0.000015   0.000000   0.000000
    30  C   -0.023538   0.003311   0.000000   0.000000
    31  C    0.434826  -0.039095   0.000000   0.000000
    32  H   -0.039148  -0.004441   0.000000   0.000000
    33  C    0.007122  -0.000127   0.000000   0.000000
    34  O    0.001051   0.000001   0.000000   0.000000
    35  O   -0.000013   0.000000   0.000000   0.000000
    36  H    0.000000   0.000000   0.000000   0.000000
    37  C    5.049315   0.357262   0.000003  -0.000016
    38  H    0.357262   0.532545   0.000000  -0.000002
    39  H    0.000003   0.000000   0.575729  -0.039642
    40  H   -0.000016  -0.000002  -0.039642   0.578793
 Mulliken atomic charges:
              1
     1  C   -0.048310
     2  C   -0.080344
     3  C    0.565724
     4  O   -0.591518
     5  H    0.422451
     6  O   -0.444194
     7  C    0.085629
     8  C   -0.184797
     9  H    0.116886
    10  C   -0.166516
    11  H    0.158354
    12  C    0.075638
    13  C   -0.157046
    14  H    0.179007
    15  C    0.579909
    16  O   -0.465107
    17  O   -0.476701
    18  C   -0.165172
    19  H    0.180942
    20  H    0.153690
    21  H    0.208697
    22  C    0.580725
    23  O   -0.471891
    24  O   -0.471888
    25  C    0.077020
    26  C   -0.168772
    27  H    0.160039
    28  C   -0.169491
    29  H    0.164168
    30  C    0.093164
    31  C   -0.165309
    32  H    0.176807
    33  C    0.544695
    34  O   -0.464574
    35  O   -0.603066
    36  H    0.428287
    37  C   -0.160722
    38  H    0.176554
    39  H    0.161005
    40  H    0.166028
 Sum of Mulliken atomic charges =   0.00000
 Mulliken charges with hydrogens summed into heavy atoms:
              1
     1  C    0.278722
     2  C    0.282043
     3  C    0.565724
     4  O   -0.169068
     6  O   -0.444194
     7  C    0.085629
     8  C   -0.067910
    10  C   -0.008162
    12  C    0.075638
    13  C    0.021960
    15  C    0.579909
    16  O   -0.465107
    17  O   -0.476701
    18  C    0.015770
    22  C    0.580725
    23  O   -0.471891
    24  O   -0.471888
    25  C    0.077020
    26  C   -0.008734
    28  C   -0.005323
    30  C    0.093164
    31  C    0.011498
    33  C    0.544695
    34  O   -0.464574
    35  O   -0.174779
    37  C    0.015832
 Sum of Mulliken charges with hydrogens summed into heavy atoms =   0.00000
 Electronic spatial extent (au):  <R**2>=          23210.5125
 Charge=              0.0000 electrons
 Dipole moment (field-independent basis, Debye):
    X=              3.2321    Y=             -6.9154    Z=             -0.6072  Tot=              7.6575
 Quadrupole moment (field-independent basis, Debye-Ang):
   XX=           -185.4268   YY=           -136.9199   ZZ=           -145.5593
   XY=              0.0376   XZ=              1.8438   YZ=              0.6499
 Traceless Quadrupole moment (field-independent basis, Debye-Ang):
   XX=            -29.4581   YY=             19.0488   ZZ=             10.4093
   XY=              0.0376   XZ=              1.8438   YZ=              0.6499
 Octapole moment (field-independent basis, Debye-Ang**2):
  XXX=            704.0663  YYY=            -39.1408  ZZZ=             -0.0075  XYY=            -36.2224
  XXY=           -303.9503  XXZ=            -48.6952  XZZ=              2.6025  YZZ=             -1.6849
  YYZ=             -0.6014  XYZ=              3.8956
 Hexadecapole moment (field-independent basis, Debye-Ang**3):
 XXXX=         -34166.6518 YYYY=          -1048.7871 ZZZZ=           -232.1011 XXXY=          -1088.1190
 XXXZ=            190.9137 YYYX=            153.2719 YYYZ=              6.3556 ZZZX=            -29.4859
 ZZZY=              0.5009 XXYY=          -4197.5584 XXZZ=          -4787.0005 YYZZ=           -240.7608
 XXYZ=             91.6820 YYXZ=            -14.8431 ZZXY=              0.3228
 N-N= 1.992972668168D+03 E-N=-7.012288372158D+03  KE= 1.284232787978D+03
 Merz-Kollman atomic radii used.

 **********************************************************************

            Electrostatic Properties Using The SCF Density

 **********************************************************************

       Atomic Center    1 is at   0.369226 -0.699273  0.578395
       Atomic Center    2 is at  -0.335818 -0.062611 -0.621683
       Atomic Center    3 is at  -8.254372 -0.512415  0.154544
       Atomic Center    4 is at  -8.728376 -1.780627  0.151487
       Atomic Center    5 is at  -8.175151 -2.564332  0.059310
       Atomic Center    6 is at  -9.053877  0.403341  0.273672
       Atomic Center    7 is at  -6.795755 -0.200396  0.016731
       Atomic Center    8 is at  -5.824717 -1.213583 -0.116835
[...]
    35  O    0.000000   0.000000   0.000000   0.000000   0.000000   0.000000
    36  H    0.000000   0.000000   0.000000   0.000000   0.000000   0.000000
    37  C    0.000000  -0.000002  -0.000005  -0.040810   0.004423   0.001524
    38  H    0.000000   0.000000  -0.000002  -0.009130   0.000294   0.013363
    39  H    0.000000  -0.006171   0.004925   0.004013  -0.032684   0.000458
    40  H    0.000000   0.005315  -0.006430  -0.006250  -0.030654   0.017122
             25         26         27         28         29         30
     1  C    0.007284  -0.000303  -0.000357   0.000002   0.000000   0.000000
     2  C   -0.000483   0.000015   0.000020   0.000000   0.000000   0.000000
     3  C    0.000000   0.000000   0.000000   0.000000   0.000000   0.000000
     4  O    0.000000   0.000000   0.000000   0.000000   0.000000   0.000000
     5  H    0.000000   0.000000   0.000000   0.000000   0.000000   0.000000
     6  O    0.000000   0.000000   0.000000   0.000000   0.000000   0.000000
     7  C    0.000000   0.000000   0.000000   0.000000   0.000000   0.000000
     8  C    0.000000   0.000000   0.000000   0.000000   0.000000   0.000000
     9  H    0.000000   0.000000   0.000000   0.000000   0.000000   0.000000
    10  C    0.000000   0.000000   0.000000   0.000000   0.000000   0.000000
    11  H    0.000000   0.000000   0.000000   0.000000   0.000000   0.000000
    12  C    0.000000   0.000000   0.000000   0.000000   0.000000   0.000000
    13  C    0.000000   0.000000   0.000000   0.000000   0.000000   0.000000
    14  H    0.000000   0.000000   0.000000   0.000000   0.000000   0.000000
    15  C    0.000000   0.000000   0.000000   0.000000   0.000000   0.000000
    16  O    0.000000   0.000000   0.000000   0.000000   0.000000   0.000000
    17  O    0.000000   0.000000   0.000000   0.000000   0.000000   0.000000
    18  C    0.000000   0.000000   0.000000   0.000000   0.000000   0.000000
    19  H    0.000000   0.000000   0.000000   0.000000   0.000000   0.000000
    20  H   -0.000045   0.000012   0.000020   0.000000   0.000000   0.000000
    21  H    0.000168  -0.000020  -0.000003   0.000000   0.000000   0.000000
    22  C    0.337041  -0.040538  -0.010263   0.004644  -0.000126   0.000408
    23  O   -0.089936   0.002016   0.011263   0.000456  -0.000002  -0.000001
    24  O   -0.082066   0.004040   0.000111  -0.000062   0.000000  -0.000009
    25  C    4.907922   0.495956  -0.035590  -0.020241   0.003129  -0.026352
    26  C    0.495956   5.045999   0.356856   0.459608  -0.040504  -0.020918
    27  H   -0.035590   0.356856   0.550667  -0.040317  -0.004470   0.003191
    28  C   -0.020241   0.459608  -0.040317   5.046166   0.357622   0.495172
    29  H    0.003129  -0.040504  -0.004470   0.357622   0.545072  -0.033132
    30  C   -0.026352  -0.020918   0.003191   0.495172  -0.033132   4.924926
    31  C   -0.022713  -0.043606   0.000428  -0.065413   0.005333   0.509934
    32  H    0.003175   0.000461   0.000017   0.005372  -0.000154  -0.039411
    33  C    0.000093   0.004890  -0.000114  -0.036156  -0.010375   0.298859
    34  O   -0.000016  -0.000059   0.000000   0.003958   0.000092  -0.092067
    35  O    0.000001   0.000326  -0.000002   0.001362   0.008744  -0.091427
    36  H    0.000001   0.000009   0.000000  -0.000517  -0.000269   0.011261
    37  C    0.505422  -0.065070   0.005376  -0.043666   0.000440  -0.023688
    38  H   -0.039958   0.005453  -0.000153   0.000456   0.000016   0.003165
    39  H    0.000042  -0.000054  -0.000014  -0.000001   0.000000   0.000000
    40  H    0.000230   0.000073   0.000029   0.000002   0.000000   0.000000
             31         32         33         34         35         36
     1  C    0.000001   0.000000   0.000000   0.000000   0.000000   0.000000
     2  C    0.000000   0.000000   0.000000   0.000000   0.000000   0.000000
     3  C    0.000000   0.000000   0.000000   0.000000   0.000000   0.000000
     4  O    0.000000   0.000000   0.000000   0.000000   0.000000   0.000000
     5  H    0.000000   0.000000   0.000000   0.000000   0.000000   0.000000
     6  O    0.000000   0.000000   0.000000   0.000000   0.000000   0.000000
     7  C    0.000000   0.000000   0.000000   0.000000   0.000000   0.000000
     8  C    0.000000   0.000000   0.000000   0.000000   0.000000   0.000000
     9  H    0.000000   0.000000   0.000000   0.000000   0.000000   0.000000
    10  C    0.000000   0.000000   0.000000   0.000000   0.000000   0.000000
    11  H    0.000000   0.000000   0.000000   0.000000   0.000000   0.000000
    12  C    0.000000   0.000000   0.000000   0.000000   0.000000   0.000000
    13  C    0.000000   0.000000   0.000000   0.000000   0.000000   0.000000
    14  H    0.000000   0.000000   0.000000   0.000000   0.000000   0.000000
    15  C    0.000000   0.000000   0.000000   0.000000   0.000000   0.000000
    16  O    0.000000   0.000000   0.000000   0.000000   0.000000   0.000000
    17  O    0.000000   0.000000   0.000000   0.000000   0.000000   0.000000
    18  C    0.000000   0.000000   0.000000   0.000000   0.000000   0.000000
    19  H    0.000000   0.000000   0.000000   0.000000   0.000000   0.000000
    20  H    0.000000   0.000000   0.000000   0.000000   0.000000   0.000000
    21  H    0.000000   0.000000   0.000000   0.000000   0.000000   0.000000
    22  C    0.006400  -0.000136   0.000001   0.000000   0.000000   0.000000
    23  O   -0.000046   0.000000   0.000000   0.000000   0.000000   0.000000
    24  O    0.000827   0.000001   0.000000   0.000000   0.000000   0.000000
    25  C   -0.022713   0.003175   0.000093  -0.000016   0.000001   0.000001
    26  C   -0.043606   0.000461   0.004890  -0.000059   0.000326   0.000009
    27  H    0.000428   0.000017  -0.000114   0.000000  -0.000002   0.000000
    28  C   -0.065413   0.005372  -0.036156   0.003958   0.001362  -0.000517
    29  H    0.005333  -0.000154  -0.010375   0.000092   0.008744  -0.000269
    30  C    0.509934  -0.039411   0.298859  -0.092067  -0.091427   0.011261
    31  C    5.055415   0.357915  -0.046240   0.001948   0.004401  -0.000267
    32  H    0.357915   0.537924  -0.009525   0.012645   0.000308  -0.000029
    33  C   -0.046240  -0.009525   4.400445   0.573740   0.281066  -0.009036
    34  O    0.001948   0.012645   0.573740   8.047971  -0.094138   0.010573
    35  O    0.004401   0.000308   0.281066  -0.094138   8.249249   0.221151
    36  H   -0.000267  -0.000029  -0.009036   0.010573   0.221151   0.351159
    37  C    0.439946  -0.039148   0.007798   0.000911  -0.000053   0.000001
    38  H   -0.038667  -0.003897  -0.000133   0.000001   0.000000   0.000000
    39  H    0.000000   0.000000   0.000000   0.000000   0.000000   0.000000
    40  H    0.000000   0.000000   0.000000   0.000000   0.000000   0.000000
             37         38         39         40
     1  C   -0.000182  -0.000014   0.373992   0.355997
     2  C    0.000015   0.000001  -0.041261  -0.036699
     3  C    0.000000   0.000000   0.000000   0.000000
     4  O    0.000000   0.000000   0.000000   0.000000
     5  H    0.000000   0.000000   0.000000   0.000000
     6  O    0.000000   0.000000   0.000000   0.000000
     7  C    0.000000   0.000000   0.000000   0.000000
     8  C    0.000000   0.000000   0.000000   0.000000
     9  H    0.000000   0.000000   0.000000   0.000000
    10  C    0.000000   0.000000   0.000002  -0.000009
    11  H    0.000000   0.000000   0.000067   0.000107
    12  C    0.000000   0.000000  -0.000026  -0.000009
    13  C    0.000000   0.000000   0.000000   0.000000
    14  H    0.000000   0.000000   0.000000   0.000000
    15  C    0.000000   0.000000   0.000006  -0.000020
    16  O    0.000000   0.000000  -0.000004  -0.000008
    17  O    0.000000   0.000000   0.003959   0.003949
    18  C    0.000000   0.000000   0.000000   0.000000
    19  H    0.000000   0.000000   0.000000   0.000000
    20  H   -0.000002   0.000000  -0.006171   0.005315
    21  H   -0.000005  -0.000002   0.004925  -0.006430
    22  C   -0.040810  -0.009130   0.004013  -0.006250
    23  O    0.004423   0.000294  -0.032684  -0.030654
    24  O    0.001524   0.013363   0.000458   0.017122
    25  C    0.505422  -0.039958   0.000042   0.000230
    26  C   -0.065070   0.005453  -0.000054   0.000073
    27  H    0.005376  -0.000153  -0.000014   0.000029
    28  C   -0.043666   0.000456  -0.000001   0.000002
    29  H    0.000440   0.000016   0.000000   0.000000
    30  C   -0.023688   0.003165   0.000000   0.000000
    31  C    0.439946  -0.038667   0.000000   0.000000
    32  H   -0.039148  -0.003897   0.000000   0.000000
    33  C    0.007798  -0.000133   0.000000   0.000000
    34  O    0.000911   0.000001   0.000000   0.000000
    35  O   -0.000053   0.000000   0.000000   0.000000
    36  H    0.000001   0.000000   0.000000   0.000000
    37  C    5.049649   0.357228   0.000002  -0.000032
    38  H    0.357228   0.538622   0.000000  -0.000009
    39  H    0.000002   0.000000   0.558366  -0.033867
    40  H   -0.000032  -0.000009  -0.033867   0.545731
 Mulliken atomic charges:
              1
     1  C   -0.067460
     2  C   -0.053534
     3  C    0.553712
     4  O   -0.570688
     5  H    0.412304
     6  O   -0.437100
     7  C    0.064197
     8  C   -0.205433
     9  H    0.141582
    10  C   -0.159750
    11  H    0.163406
    12  C    0.054537
    13  C   -0.155543
    14  H    0.176978
    15  C    0.608610
    16  O   -0.477819
    17  O   -0.490402
    18  C   -0.161028
    19  H    0.177703
    20  H    0.174550
    21  H    0.189449
    22  C    0.600656
    23  O   -0.483834
    24  O   -0.480873
    25  C    0.056937
    26  C   -0.164643
    27  H    0.163306
    28  C   -0.168445
    29  H    0.168584
    30  C    0.080090
    31  C   -0.165597
    32  H    0.174482
    33  C    0.544685
    34  O   -0.465560
    35  O   -0.580989
    36  H    0.415962
    37  C   -0.160078
    38  H    0.173365
    39  H    0.168251
    40  H    0.185432
 Sum of Mulliken atomic charges =   0.00000
 Mulliken charges with hydrogens summed into heavy atoms:
              1
     1  C    0.286223
     2  C    0.310465
     3  C    0.553712
     4  O   -0.158384
     6  O   -0.437100
     7  C    0.064197
     8  C   -0.063851
    10  C    0.003656
    12  C    0.054537
    13  C    0.021434
    15  C    0.608610
    16  O   -0.477819
    17  O   -0.490402
    18  C    0.016675
    22  C    0.600656
    23  O   -0.483834
    24  O   -0.480873
    25  C    0.056937
    26  C   -0.001337
    28  C    0.000138
    30  C    0.080090
    31  C    0.008885
    33  C    0.544685
    34  O   -0.465560
    35  O   -0.165027
    37  C    0.013287
 Sum of Mulliken charges with hydrogens summed into heavy atoms =   0.00000
 Electronic spatial extent (au):  <R**2>=          22813.3970
 Charge=              0.0000 electrons
 Dipole moment (field-independent basis, Debye):
    X=              3.5313    Y=             -2.3923    Z=             -4.3668  Tot=              6.1042
 Quadrupole moment (field-independent basis, Debye-Ang):
   XX=           -193.0049   YY=           -143.6072   ZZ=           -144.3342
   XY=             11.8092   XZ=             -3.2253   YZ=              1.9776
 Traceless Quadrupole moment (field-independent basis, Debye-Ang):
   XX=            -32.6895   YY=             16.7083   ZZ=             15.9812
   XY=             11.8092   XZ=             -3.2253   YZ=              1.9776
 Octapole moment (field-independent basis, Debye-Ang**2):
  XXX=            699.9141  YYY=            -18.6758  ZZZ=             -8.9044  XYY=            -30.0093
  XXY=            -18.9384  XXZ=           -238.9083  XZZ=              9.4571  YZZ=             -0.6888
  YYZ=             -7.6259  XYZ=            -19.1931
 Hexadecapole moment (field-independent basis, Debye-Ang**3):
 XXXX=         -34239.2717 YYYY=           -815.1480 ZZZZ=           -615.1471 XXXY=            472.0040
 XXXZ=           -755.4600 YYYX=             98.6226 YYYZ=             15.5651 ZZZX=              1.4124
 ZZZY=              6.5282 XXYY=          -4543.2822 XXZZ=          -4641.1019 YYZZ=           -243.7057
 XXYZ=            -37.1153 YYXZ=             20.0401 ZZXY=             46.1999
 N-N= 1.999874998705D+03 E-N=-7.025892967053D+03  KE= 1.284532212680D+03
 Merz-Kollman atomic radii used.

 **********************************************************************

            Electrostatic Properties Using The SCF Density

 **********************************************************************

       Atomic Center    1 is at   0.408791 -0.934804 -0.526133
       Atomic Center    2 is at  -0.334921  0.359353 -0.223561
       Atomic Center    3 is at  -8.196195 -0.394617  0.031996
       Atomic Center    4 is at  -8.587824 -1.562945 -0.544440
       Atomic Center    5 is at  -7.852233 -1.954897 -1.042396
       Atomic Center    6 is at  -9.013648  0.333784  0.540572
       Atomic Center    7 is at  -6.727275 -0.081933 -0.004785
       Atomic Center    8 is at  -5.741548 -1.070376 -0.139216
       Atomic Center    9 is at  -6.012028 -2.122492 -0.193257
       Atomic Center   10 is at  -4.392743 -0.724444 -0.152007
       Atomic Center   11 is at  -3.632224 -1.490929 -0.245055
       Atomic Center   12 is at  -4.016207  0.619187 -0.033122
       Atomic Center   13 is at  -4.999185  1.607948  0.115722
       Atomic Center   14 is at  -4.686606  2.641872  0.215856
       Atomic Center   15 is at  -2.588154  1.054017 -0.045201
       Atomic Center   16 is at  -2.221186  2.203323  0.083740
       Atomic Center   17 is at  -1.734046  0.017672 -0.220430
       Atomic Center   18 is at  -6.343514  1.258835  0.138487
       Atomic Center   19 is at  -7.116199  2.009417  0.265819
       Atomic Center   20 is at  -0.139857  1.119485 -0.985361
       Atomic Center   21 is at  -0.050667  0.760176  0.752701
       Atomic Center   22 is at   2.531693 -0.679391  0.512921
       Atomic Center   23 is at   1.818487 -0.672376 -0.643774
       Atomic Center   24 is at   2.032652 -0.871661  1.603023
       Atomic Center   25 is at   3.983702 -0.429084  0.283431
       Atomic Center   26 is at   4.516370 -0.215838 -0.995717
       Atomic Center   27 is at   3.862226 -0.229858 -1.859694
       Atomic Center   28 is at   5.880328  0.013390 -1.151765
       Atomic Center   29 is at   6.297494  0.179480 -2.138451
       Atomic Center   30 is at   6.720555  0.030511 -0.029943
       Atomic Center   31 is at   6.186932 -0.182828  1.248641
       Atomic Center   32 is at   6.855279 -0.165004  2.102809
       Atomic Center   33 is at   8.186644  0.271498 -0.140408
       Atomic Center   34 is at   8.956413  0.295152  0.797987
       Atomic Center   35 is at   8.596318  0.467768 -1.418805
       Atomic Center   36 is at   9.559177  0.614384 -1.369282
       Atomic Center   37 is at   4.825742 -0.410937  1.404741
       Atomic Center   38 is at   4.393494 -0.577857  2.385460
       Atomic Center   39 is at   0.105799 -1.338248 -1.494629
       Atomic Center   40 is at   0.232936 -1.674183  0.258016
    1820 points will be used for fitting atomic charges
 Fitting point charges to electrostatic potential
 Charges from ESP fit, RMS=   0.00134 RRMS=   0.08154:
 Charge=   0.00000 Dipole=     3.5154    -2.4030    -4.3977 Tot=     6.1215
              1
     1  C    0.185693
     2  C    0.134879
     3  C    0.635764
     4  O   -0.527872
     5  H    0.376202
     6  O   -0.444283
     7  C   -0.093941
     8  C   -0.149257
     9  H    0.123829
    10  C   -0.020374
    11  H    0.095022
    12  C   -0.182704
    13  C   -0.050884
    14  H    0.121467
    15  C    0.769880
    16  O   -0.518840
    17  O   -0.446932
    18  C   -0.082396
    19  H    0.117951
    20  H    0.051155
    21  H    0.067376
    22  C    0.602708
    23  O   -0.400006
    24  O   -0.464154
    25  C   -0.077868
    26  C   -0.094345
    27  H    0.122620
    28  C   -0.147413
    29  H    0.147157
    30  C    0.038155
    31  C   -0.145195
    32  H    0.137879
    33  C    0.588656
    34  O   -0.492795
    35  O   -0.569027
    36  H    0.430071
    37  C   -0.058749
    38  H    0.113266
    39  H    0.053688
    40  H    0.053616
 -----------------------------------------------------------------

              Electrostatic Properties (Atomic Units)

 -----------------------------------------------------------------
    Center     Electric         -------- Electric Field --------
               Potential          X             Y             Z
 -----------------------------------------------------------------
    1 Atom    -14.659101
    2 Atom    -14.662185
    3 Atom    -14.595907
    4 Atom    -22.258021
    5 Atom     -0.939772
    6 Atom    -22.325141
    7 Atom    -14.695482
    8 Atom    -14.699025
    9 Atom     -1.065926
   10 Atom    -14.703687
   11 Atom     -1.078068
   12 Atom    -14.697577
   13 Atom    -14.710161
   14 Atom     -1.086610
   15 Atom    -14.591649
   16 Atom    -22.314605
   17 Atom    -22.249799
   18 Atom    -14.710607
   19 Atom     -1.087207
   20 Atom     -1.092425
   21 Atom     -1.093786
   22 Atom    -14.591065
   23 Atom    -22.249865
   24 Atom    -22.313409
   25 Atom    -14.700991
   26 Atom    -14.710886
   27 Atom     -1.085311
   28 Atom    -14.711237
   29 Atom     -1.085831
   30 Atom    -14.701866
   31 Atom    -14.714693
   32 Atom     -1.090292
   33 Atom    -14.592328
   34 Atom    -22.317552
   35 Atom    -22.253497
   36 Atom     -0.939445
   37 Atom    -14.714367
   38 Atom     -1.089875
   39 Atom     -1.086936
   40 Atom     -1.089515
 -----------------------------------------------------------------
 1\1\GINC-R1I1N6\FOpt\RB3LYP\6-31G(d)\C18H14O8\VSC30783\15-Jul-2016\0\\
 #n B3LYP/6-31G(d) Opt Pop=ESP scf=(direct,tight)\\3DEG\\0,1\C,-5.82753
 876,1.8773776033,-0.0456153277\C,-4.9872339105,2.9371039454,0.65464790
 23\C,2.5859708924,3.0872315652,-1.5942299542\O,2.9165682325,1.94352186
 15,-2.2524655413\H,2.2251529182,1.2731534618,-2.1290494897\O,3.3971725
 011,3.97325996,-1.474430362\C,1.1902081784,3.1715811537,-1.0450651068\
 C,0.1239292155,2.4177679381,-1.556498096\H,0.2686179229,1.7537006551,-
 2.4056783956\C,-1.1537671031,2.5474093072,-1.018173798\H,-1.9785717729
 ,1.9719746592,-1.4220540786\C,-1.3768129267,3.4335686653,0.0430658687\
 C,-0.3154348667,4.1989023429,0.54684167\H,-0.5107983641,4.8865193887,1
 .3627743425\C,-2.7214089643,3.6133706674,0.6661947798\O,-2.960441388,4
 .3907581437,1.5665985667\O,-3.6581893867,2.8049117061,0.1156905847\C,0
 .9559301199,4.0750497923,0.0010304668\H,1.7853699911,4.6687924865,0.36
 99871998\H,-4.966644944,2.7796084261,1.7367571596\H,-5.3688741475,3.94
 13297228,0.4535853218\C,-8.0389512971,2.749866148,-0.045945655\O,-7.15
 88078437,1.8700806457,0.4999302846\O,-7.7432022454,3.5268180853,-0.930
 9378925\C,-9.395751228,2.6440867595,0.5636055415\C,-9.6924367751,1.727
 6354637,1.5821959248\H,-8.9183675781,1.065075722,1.9515048278\C,-10.97
 69568861,1.6720791969,2.115299603\H,-11.2117733947,0.9658086724,2.9034
 651725\C,-11.9732123277,2.532186173,1.6331706811\C,-11.6755145296,3.44
 81808846,0.6146549492\H,-12.4615104329,4.1045047421,0.2568024114\C,-13
 .3634998904,2.514780328,2.1684198023\O,-14.2613152762,3.2364652057,1.7
 852910188\O,-13.5418260145,1.5949688192,3.1496437252\H,-14.4753491892,
 1.6736461772,3.4205509916\C,-10.3935785508,3.5043126319,0.0829321312\H
 ,-10.143151407,4.2061048105,-0.7052837379\H,-5.4290623532,0.8787065495
 ,0.1452492263\H,-5.8678962175,2.0641995328,-1.1207727186\\Version=AM64
 L-G09RevA.02\State=1-A\HF=-1296.1916797\RMSD=6.711e-09\RMSF=1.997e-06\
 Dipole=-1.2093265,-2.0061012,0.5298013\Quadrupole=-25.7708694,13.04958
 04,12.721289,-5.1642161,-1.3214482,1.2376138\PG=C01 [X(C18H14O8)]\\@


 ART, GLORY, FREEDOM FAIL, BUT NATURE STILL IS FAIR.

                                           -- BYRON
 Job cpu time:  0 days 12 hours 54 minutes 30.5 seconds.
 File lengths (MBytes):  RWF=    116 Int=      0 D2E=      0 Chk=     12 Scr=      1
 Normal termination of Gaussian 09 at Fri Jul 15 10:50:41 2016.
