 Entering Gaussian System, Link 0=g09
 Initial command:
 /data/leuven/301/vsc30101/g09A2/l1.exe /local_scratch/vsc30787/Gau-17793.inp -scrdir=/local_scratch/vsc30787/
 Entering Link 1 = /data/leuven/301/vsc30101/g09A2/l1.exe PID=     17794.
  
 Copyright (c) 1988,1990,1992,1993,1995,1998,2003,2009, Gaussian, Inc.
                  All Rights Reserved.
  
 This is part of the Gaussian(R) 09 program.  It is based on
 the Gaussian(R) 03 system (copyright 2003, Gaussian, Inc.),
 the Gaussian(R) 98 system (copyright 1998, Gaussian, Inc.),
 the Gaussian(R) 94 system (copyright 1995, Gaussian, Inc.),
 the Gaussian 92(TM) system (copyright 1992, Gaussian, Inc.),
 the Gaussian 90(TM) system (copyright 1990, Gaussian, Inc.),
 the Gaussian 88(TM) system (copyright 1988, Gaussian, Inc.),
 the Gaussian 86(TM) system (copyright 1986, Carnegie Mellon
 University), and the Gaussian 82(TM) system (copyright 1983,
 Carnegie Mellon University). Gaussian is a federally registered
 trademark of Gaussian, Inc.
  
 This software contains proprietary and confidential information,
 including trade secrets, belonging to Gaussian, Inc.
  
 This software is provided under written license and may be
 used, copied, transmitted, or stored only in accord with that
 written license.
  
 The following legend is applicable only to US Government
 contracts under FAR:
  
                    RESTRICTED RIGHTS LEGEND
  
 Use, reproduction and disclosure by the US Government is
 subject to restrictions as set forth in subparagraphs (a)
 and (c) of the Commercial Computer Software - Restricted
 Rights clause in FAR 52.227-19.
  
 Gaussian, Inc.
 340 Quinnipiac St., Bldg. 40, Wallingford CT 06492
  
  
 ---------------------------------------------------------------
 Warning -- This program may not be used in any manner that
 competes with the business of Gaussian, Inc. or will provide
 assistance to any competitor of Gaussian, Inc.  The licensee
 of this program is prohibited from giving any competitor of
 Gaussian, Inc. access to this program.  By using this program,
 the user acknowledges that Gaussian, Inc. is engaged in the
 business of creating and licensing software in the field of
 computational chemistry and represents and warrants to the
 licensee that it is not a competitor of Gaussian, Inc. and that
 it will not use this program in any manner prohibited above.
 ---------------------------------------------------------------
  

 Cite this work as:
 Gaussian 09, Revision A.02,
 M. J. Frisch, G. W. Trucks, H. B. Schlegel, G. E. Scuseria, 
 M. A. Robb, J. R. Cheeseman, G. Scalmani, V. Barone, B. Mennucci, 
 G. A. Petersson, H. Nakatsuji, M. Caricato, X. Li, H. P. Hratchian, 
 A. F. Izmaylov, J. Bloino, G. Zheng, J. L. Sonnenberg, M. Hada, 
 M. Ehara, K. Toyota, R. Fukuda, J. Hasegawa, M. Ishida, T. Nakajima, 
 Y. Honda, O. Kitao, H. Nakai, T. Vreven, J. A. Montgomery, Jr., 
 J. E. Peralta, F. Ogliaro, M. Bearpark, J. J. Heyd, E. Brothers, 
 K. N. Kudin, V. N. Staroverov, R. Kobayashi, J. Normand, 
 K. Raghavachari, A. Rendell, J. C. Burant, S. S. Iyengar, J. Tomasi, 
 M. Cossi, N. Rega, J. M. Millam, M. Klene, J. E. Knox, J. B. Cross, 
 V. Bakken, C. Adamo, J. Jaramillo, R. Gomperts, R. E. Stratmann, 
 O. Yazyev, A. J. Austin, R. Cammi, C. Pomelli, J. W. Ochterski, 
 R. L. Martin, K. Morokuma, V. G. Zakrzewski, G. A. Voth, 
 P. Salvador, J. J. Dannenberg, S. Dapprich, A. D. Daniels, 
 O. Farkas, J. B. Foresman, J. V. Ortiz, J. Cioslowski, 
 and D. J. Fox, Gaussian, Inc., Wallingford CT, 2009.
 
 ******************************************
 Gaussian 09:  AM64L-G09RevA.02 11-Jun-2009
                 7-Jul-2016 
 ******************************************
 %mem=2gb
 %NProcShared=2
 Will use up to    2 processors via shared memory.
 ------------------------------------------------
 #n B3LYP/6-31G(d) Opt Pop=ESP scf=(direct,tight)
 ------------------------------------------------
 1/14=-1,18=20,19=15,26=3,38=1/1,3;
 2/9=110,12=2,17=6,18=5,40=1/2;
 3/5=1,6=6,7=1,11=2,16=1,25=1,30=1,71=1,74=-5/1,2,3;
 4//1;
 5/5=2,32=2,38=5/2;
 6/7=2,8=2,9=2,10=2,15=8,28=1/1,2;
 7//1,2,3,16;
 1/14=-1,18=20,19=15/3(2);
 2/9=110/2;
 99//99;
 2/9=110/2;
 3/5=1,6=6,7=1,11=2,16=1,25=1,30=1,71=1,74=-5/1,2,3;
 4/5=5,16=3/1;
 5/5=2,32=2,38=5/2;
 7//1,2,3,16;
 1/14=-1,18=20,19=15/3(-5);
 2/9=110/2;
 6/7=2,8=2,9=2,10=2,15=8,19=2,28=1/1,2;
 99/9=1/99;
 ----------------
 Terphatalic_acid
 ----------------
 Symbolic Z-matrix:
 Charge =  0 Multiplicity = 1
 O
 C                    1    B1
 O                    2    B2       1    A2
 C                    2    B3       1    A3       3    D3       0
 C                    4    B4       2    A4       1    D4       0
 C                    5    B5       4    A5       2    D5       0
 C                    6    B6       5    A6       4    D6       0
 C                    7    B7       6    A7       5    D7       0
 C                    4    B8       2    A8       1    D8       0
 C                    7    B9       6    A9       5    D9       0
 O                    10   B10      7    A10      6    D10      0
 O                    10   B11      7    A11      6    D11      0
 H                    5    B12      4    A12      2    D12      0
 H                    6    B13      5    A13      4    D13      0
 H                    8    B14      7    A14      6    D14      0
 H                    9    B15      4    A15      2    D15      0
 H                    1    B16      2    A16      3    D16      0
 H                    12   B17      10   A17      7    D17      0
       Variables:
  B1                    1.34454                  
  B2                    1.21644                  
  A2                  121.39275                  
  B3                    1.48325                  
  A3                  112.71432                  
  D3                  180.02562                  
  B4                    1.39714                  
  A4                  118.44324                  
  D4                  179.97438                  
  B5                    1.39891                  
  A5                  120.07506                  
  D5                  180.02562                  
  B6                    1.40558                  
  A6                  121.01884                  
  D6                    0.02562                  
  B7                    1.40226                  
  A7                  118.63                     
  D7                    0.02562                  
  B8                    1.39987                  
  A8                  122.18601                  
  D8                    0.02562                  
  B9                    1.49592                  
  A9                  116.76161                  
  D9                  179.97438                  
  B10                   1.22137                  
  A10                 121.8471                   
  D10                 359.97438                  
  B11                   1.34719                  
  A11                 116.72278                  
  D11                 179.97438                  
  B12                   1.08897                  
  A12                 120.44064                  
  D12                   0.02562                  
  B13                   1.09029                  
  A13                 118.80768                  
  D13                 179.97438                  
  B14                   1.08362                  
  A14                 122.87574                  
  D14                 179.97438                  
  B15                   1.08855                  
  A15                 120.32025                  
  D15                 359.97438                  
  B16                   0.98088                  
  A16                 103.76723                  
  D16                 359.97438                  
  B17                   0.96906                  
  A17                 118.1071                   
  D17                 359.97438                  
 

 GradGradGradGradGradGradGradGradGradGradGradGradGradGradGradGradGradGrad
 Berny optimization.
 Initialization pass.
                           ----------------------------
                           !    Initial Parameters    !
                           ! (Angstroms and Degrees)  !
 --------------------------                            --------------------------
 ! Name  Definition              Value          Derivative Info.                !
 --------------------------------------------------------------------------------
 ! R1    R(1,2)                  1.3445         estimate D2E/DX2                !
 ! R2    R(1,17)                 0.9809         estimate D2E/DX2                !
 ! R3    R(2,3)                  1.2164         estimate D2E/DX2                !
 ! R4    R(2,4)                  1.4832         estimate D2E/DX2                !
 ! R5    R(4,5)                  1.3971         estimate D2E/DX2                !
 ! R6    R(4,9)                  1.3999         estimate D2E/DX2                !
 ! R7    R(5,6)                  1.3989         estimate D2E/DX2                !
 ! R8    R(5,13)                 1.089          estimate D2E/DX2                !
 ! R9    R(6,7)                  1.4056         estimate D2E/DX2                !
 ! R10   R(6,14)                 1.0903         estimate D2E/DX2                !
 ! R11   R(7,8)                  1.4023         estimate D2E/DX2                !
 ! R12   R(7,10)                 1.4959         estimate D2E/DX2                !
 ! R13   R(8,9)                  1.4032         estimate D2E/DX2                !
 ! R14   R(8,15)                 1.0836         estimate D2E/DX2                !
 ! R15   R(9,16)                 1.0885         estimate D2E/DX2                !
 ! R16   R(10,11)                1.2214         estimate D2E/DX2                !
 ! R17   R(10,12)                1.3472         estimate D2E/DX2                !
 ! R18   R(12,18)                0.9691         estimate D2E/DX2                !
 ! A1    A(2,1,17)             103.7672         estimate D2E/DX2                !
 ! A2    A(1,2,3)              121.3928         estimate D2E/DX2                !
 ! A3    A(1,2,4)              112.7143         estimate D2E/DX2                !
 ! A4    A(3,2,4)              125.8929         estimate D2E/DX2                !
 ! A5    A(2,4,5)              118.4432         estimate D2E/DX2                !
 ! A6    A(2,4,9)              122.186          estimate D2E/DX2                !
 ! A7    A(5,4,9)              119.3707         estimate D2E/DX2                !
 ! A8    A(4,5,6)              120.0751         estimate D2E/DX2                !
 ! A9    A(4,5,13)             120.4406         estimate D2E/DX2                !
 ! A10   A(6,5,13)             119.4843         estimate D2E/DX2                !
 ! A11   A(5,6,7)              121.0188         estimate D2E/DX2                !
 ! A12   A(5,6,14)             118.8077         estimate D2E/DX2                !
 ! A13   A(7,6,14)             120.1735         estimate D2E/DX2                !
 ! A14   A(6,7,8)              118.63           estimate D2E/DX2                !
 ! A15   A(6,7,10)             116.7616         estimate D2E/DX2                !
 ! A16   A(8,7,10)             124.6084         estimate D2E/DX2                !
 ! A17   A(7,8,9)              120.3465         estimate D2E/DX2                !
 ! A18   A(7,8,15)             122.8757         estimate D2E/DX2                !
 ! A19   A(9,8,15)             116.7777         estimate D2E/DX2                !
 ! A20   A(4,9,8)              120.5588         estimate D2E/DX2                !
 ! A21   A(4,9,16)             120.3202         estimate D2E/DX2                !
 ! A22   A(8,9,16)             119.1209         estimate D2E/DX2                !
 ! A23   A(7,10,11)            121.8471         estimate D2E/DX2                !
 ! A24   A(7,10,12)            116.7228         estimate D2E/DX2                !
 ! A25   A(11,10,12)           121.4301         estimate D2E/DX2                !
 ! A26   A(10,12,18)           118.1071         estimate D2E/DX2                !
 ! D1    D(17,1,2,3)            -0.0256         estimate D2E/DX2                !
 ! D2    D(17,1,2,4)           180.0            estimate D2E/DX2                !
 ! D3    D(1,2,4,5)            179.9744         estimate D2E/DX2                !
 ! D4    D(1,2,4,9)              0.0256         estimate D2E/DX2                !
 ! D5    D(3,2,4,5)              0.0014         estimate D2E/DX2                !
 ! D6    D(3,2,4,9)           -179.9474         estimate D2E/DX2                !
 ! D7    D(2,4,5,6)           -179.9744         estimate D2E/DX2                !
 ! D8    D(2,4,5,13)             0.0256         estimate D2E/DX2                !
 ! D9    D(9,4,5,6)             -0.0241         estimate D2E/DX2                !
 ! D10   D(9,4,5,13)           179.9759         estimate D2E/DX2                !
 ! D11   D(2,4,9,8)            179.9196         estimate D2E/DX2                !
 ! D12   D(2,4,9,16)            -0.0256         estimate D2E/DX2                !
 ! D13   D(5,4,9,8)             -0.0287         estimate D2E/DX2                !
 ! D14   D(5,4,9,16)          -179.9739         estimate D2E/DX2                !
 ! D15   D(4,5,6,7)              0.0256         estimate D2E/DX2                !
 ! D16   D(4,5,6,14)           179.9744         estimate D2E/DX2                !
 ! D17   D(13,5,6,7)          -179.9744         estimate D2E/DX2                !
 ! D18   D(13,5,6,14)           -0.0256         estimate D2E/DX2                !
 ! D19   D(5,6,7,8)              0.0256         estimate D2E/DX2                !
 ! D20   D(5,6,7,10)           179.9744         estimate D2E/DX2                !
 ! D21   D(14,6,7,8)          -179.9224         estimate D2E/DX2                !
 ! D22   D(14,6,7,10)            0.0263         estimate D2E/DX2                !
 ! D23   D(6,7,8,9)             -0.0782         estimate D2E/DX2                !
 ! D24   D(6,7,8,15)           179.9744         estimate D2E/DX2                !
 ! D25   D(10,7,8,9)           179.9773         estimate D2E/DX2                !
 ! D26   D(10,7,8,15)            0.03           estimate D2E/DX2                !
 ! D27   D(6,7,10,11)           -0.0256         estimate D2E/DX2                !
 ! D28   D(6,7,10,12)          179.9744         estimate D2E/DX2                !
 ! D29   D(8,7,10,11)          179.9197         estimate D2E/DX2                !
 ! D30   D(8,7,10,12)           -0.0803         estimate D2E/DX2                !
 ! D31   D(7,8,9,4)              0.0808         estimate D2E/DX2                !
 ! D32   D(7,8,9,16)          -179.9733         estimate D2E/DX2                !
 ! D33   D(15,8,9,4)          -179.9687         estimate D2E/DX2                !
 ! D34   D(15,8,9,16)           -0.0228         estimate D2E/DX2                !
 ! D35   D(7,10,12,18)          -0.0256         estimate D2E/DX2                !
 ! D36   D(11,10,12,18)        179.9744         estimate D2E/DX2                !
 --------------------------------------------------------------------------------
 Trust Radius=3.00D-01 FncErr=1.00D-07 GrdErr=1.00D-06
 Number of steps in this run=  90 maximum allowed number of steps= 108.
 GradGradGradGradGradGradGradGradGradGradGradGradGradGradGradGradGradGrad

                          Input orientation:                          
 ---------------------------------------------------------------------
 Center     Atomic      Atomic             Coordinates (Angstroms)
 Number     Number       Type             X           Y           Z
 ---------------------------------------------------------------------
      1          8           0        0.000000    0.000000    0.000000
      2          6           0        0.000000    0.000000    1.344540
      3          8           0        1.038374    0.000000    1.978186
      4          6           0       -1.368211   -0.000612    1.917277
      5          6           0       -1.507676   -0.001223    3.307439
      6          6           0       -2.782183   -0.002353    3.884137
      7          6           0       -3.938679   -0.003429    3.085280
      8          6           0       -3.791980   -0.003902    1.690714
      9          6           0       -2.513519   -0.001654    1.112351
     10          6           0       -5.252028   -0.005185    3.801441
     11          8           0       -5.321136   -0.006130    5.020854
     12          8           0       -6.359962   -0.005678    3.035019
     13          1           0       -0.628579   -0.000827    3.950124
     14          1           0       -2.866996   -0.003241    4.971122
     15          1           0       -4.635527   -0.005134    1.010524
     16          1           0       -2.422821   -0.001625    0.027586
     17          1           0        0.952700    0.000426   -0.233428
     18          1           0       -6.249141   -0.004497    2.072318
 ---------------------------------------------------------------------
                    Distance matrix (angstroms):
                    1          2          3          4          5
     1  O    0.000000
     2  C    1.344540   0.000000
     3  O    2.234153   1.216440   0.000000
     4  C    2.355410   1.483250   2.407356   0.000000
     5  C    3.634865   2.475088   2.872157   1.397140   0.000000
     6  C    4.777768   3.766975   4.269579   2.422366   1.398910
     7  C    5.003214   4.306202   5.098697   2.823391   2.441133
     8  C    4.151824   3.807750   4.838901   2.434336   2.798544
     9  C    2.748655   2.524221   3.655901   1.399870   2.414566
    10  C    6.483423   5.798292   6.549308   4.316726   3.776800
    11  O    7.315976   6.467597   7.049910   5.025718   4.180705
    12  O    7.047020   6.580795   7.473439   5.115364   4.859929
    13  H    3.999824   2.680332   2.582106   2.163220   1.088970
    14  H    5.738618   4.622962   4.920325   3.401813   2.148394
    15  H    4.744396   4.647548   5.755827   3.390807   3.880629
    16  H    2.422979   2.757613   3.972997   2.164055   3.405132
    17  H    0.980880   1.843263   2.213272   3.164200   4.311750
    18  H    6.583789   6.291378   7.288123   4.883392   4.899696
                    6          7          8          9         10
     6  C    0.000000
     7  C    1.405580   0.000000
     8  C    2.414703   1.402260   0.000000
     9  C    2.784776   2.433830   1.403200   0.000000
    10  C    2.471230   1.495920   2.566498   3.838053   0.000000
    11  O    2.781802   2.378581   3.664445   4.812393   1.221370
    12  O    3.677161   2.421806   2.898567   4.300208   1.347190
    13  H    2.154615   3.421216   3.887421   3.406751   4.625840
    14  H    1.090290   2.169080   3.408324   3.874928   2.656413
    15  H    3.419435   2.188655   1.083620   2.124453   2.858197
    16  H    3.873257   3.412816   2.154204   1.088550   4.716609
    17  H    5.559109   5.910957   5.119993   3.718306   7.401273
    18  H    3.911839   2.522762   2.486616   3.856995   1.996022
                   11         12         13         14         15
    11  O    0.000000
    12  O    2.241138   0.000000
    13  H    4.813168   5.803980   0.000000
    14  H    2.454646   3.993659   2.460275   0.000000
    15  H    4.068514   2.659371   4.969597   4.337516   0.000000
    16  H    5.773472   4.954366   4.313421   4.963451   2.421208
    17  H    8.183431   8.009857   4.472421   6.455806   5.725009
    18  H    3.091126   0.969060   5.925949   4.454433   1.931619
                   16         17         18
    16  H    0.000000
    17  H    3.385598   0.000000
    18  H    4.338393   7.561943   0.000000
 Stoichiometry    C8H6O4
 Framework group  C1[X(C8H6O4)]
 Deg. of freedom    48
 Full point group                 C1      NOp   1
 Largest Abelian subgroup         C1      NOp   1
 Largest concise Abelian subgroup C1      NOp   1
                         Standard orientation:                         
 ---------------------------------------------------------------------
 Center     Atomic      Atomic             Coordinates (Angstroms)
 Number     Number       Type             X           Y           Z
 ---------------------------------------------------------------------
      1          8           0        3.449037    1.121592   -0.000236
      2          6           0        2.879985   -0.096590    0.000072
      3          8           0        3.552595   -1.110159   -0.000654
      4          6           0        1.397956   -0.036432    0.000738
      5          6           0        0.683237   -1.236922    0.000561
      6          6           0       -0.715571   -1.220011    0.000633
      7          6           0       -1.425280   -0.006764    0.000343
      8          6           0       -0.702144    1.194655   -0.000572
      9          6           0        0.700952    1.177579    0.000472
     10          6           0       -2.918306   -0.099771   -0.000148
     11          8           0       -3.497014   -1.175336   -0.000755
     12          8           0       -3.597744    1.063537    0.000112
     13          1           0        1.207713   -2.191270    0.000368
     14          1           0       -1.252461   -2.168948    0.000065
     15          1           0       -1.178539    2.167938   -0.001253
     16          1           0        1.242233    2.122013    0.000177
     17          1           0        4.410997    0.929870   -0.000662
     18          1           0       -3.089891    1.888862    0.000980
 ---------------------------------------------------------------------
 Rotational constants (GHZ):      2.9123058      0.4581329      0.3958604
 Standard basis: 6-31G(d) (6D, 7F)
 There are   192 symmetry adapted basis functions of A   symmetry.
 Integral buffers will be    131072 words long.
 Raffenetti 2 integral format.
 Two-electron integral symmetry is turned on.
   192 basis functions,   360 primitive gaussians,   192 cartesian basis functions
    43 alpha electrons       43 beta electrons
       nuclear repulsion energy       641.9012533485 Hartrees.
 NAtoms=   18 NActive=   18 NUniq=   18 SFac= 7.50D-01 NAtFMM=   80 NAOKFM=F Big=F
 One-electron integrals computed using PRISM.
 NBasis=   192 RedAO= T  NBF=   192
 NBsUse=   192 1.00D-06 NBFU=   192
 Harris functional with IExCor=  402 diagonalized for initial guess.
 ExpMin= 1.61D-01 ExpMax= 5.48D+03 ExpMxC= 8.25D+02 IAcc=1 IRadAn=         1 AccDes= 0.00D+00
 HarFok:  IExCor=  402 AccDes= 0.00D+00 IRadAn=         1 IDoV= 1
 ScaDFX=  1.000000  1.000000  1.000000  1.000000
 FoFCou: FMM=F IPFlag=           0 FMFlag=      100000 FMFlg1=           0
         NFxFlg=           0 DoJE=T BraDBF=F KetDBF=T FulRan=T
         Omega=  0.000000  0.000000  1.000000  0.000000  0.000000 ICntrl=     500 IOpCl=  0
         NMat0=    1 NMatS0=    1 NMatT0=    0 NMatD0=    1 NMtDS0=    0 NMtDT0=    0
         I1Cent=           4 NGrid=           0.
 Petite list used in FoFCou.
 Initial guess orbital symmetries:
       Occupied  (A) (A) (A) (A) (A) (A) (A) (A) (A) (A) (A) (A)
                 (A) (A) (A) (A) (A) (A) (A) (A) (A) (A) (A) (A)
                 (A) (A) (A) (A) (A) (A) (A) (A) (A) (A) (A) (A)
                 (A) (A) (A) (A) (A) (A) (A)
       Virtual   (A) (A) (A) (A) (A) (A) (A) (A) (A) (A) (A) (A)
                 (A) (A) (A) (A) (A) (A) (A) (A) (A) (A) (A) (A)
                 (A) (A) (A) (A) (A) (A) (A) (A) (A) (A) (A) (A)
                 (A) (A) (A) (A) (A) (A) (A) (A) (A) (A) (A) (A)
                 (A) (A) (A) (A) (A) (A) (A) (A) (A) (A) (A) (A)
                 (A) (A) (A) (A) (A) (A) (A) (A) (A) (A) (A) (A)
                 (A) (A) (A) (A) (A) (A) (A) (A) (A) (A) (A) (A)
                 (A) (A) (A) (A) (A) (A) (A) (A) (A) (A) (A) (A)
                 (A) (A) (A) (A) (A) (A) (A) (A) (A) (A) (A) (A)
                 (A) (A) (A) (A) (A) (A) (A) (A) (A) (A) (A) (A)
                 (A) (A) (A) (A) (A) (A) (A) (A) (A) (A) (A) (A)
                 (A) (A) (A) (A) (A) (A) (A) (A) (A) (A) (A) (A)
                 (A) (A) (A) (A) (A)
 The electronic state of the initial guess is 1-A.
 Requested convergence on RMS density matrix=1.00D-08 within 128 cycles.
 Requested convergence on MAX density matrix=1.00D-06.
 Requested convergence on             energy=1.00D-06.
 No special actions if energy rises.
 Keep R1 ints in memory in canonical form, NReq=175529791.
 Integral accuracy reduced to 1.0D-05 until final iterations.
 Initial convergence to 1.0D-05 achieved.  Increase integral accuracy.
 SCF Done:  E(RB3LYP) =  -609.378091572     A.U. after   15 cycles
             Convg  =    0.7946D-08             -V/T =  2.0091

 **********************************************************************

            Population analysis using the SCF density.

 **********************************************************************

 Orbital symmetries:
       Occupied  (A) (A) (A) (A) (A) (A) (A) (A) (A) (A) (A) (A)
                 (A) (A) (A) (A) (A) (A) (A) (A) (A) (A) (A) (A)
                 (A) (A) (A) (A) (A) (A) (A) (A) (A) (A) (A) (A)
                 (A) (A) (A) (A) (A) (A) (A)
       Virtual   (A) (A) (A) (A) (A) (A) (A) (A) (A) (A) (A) (A)
                 (A) (A) (A) (A) (A) (A) (A) (A) (A) (A) (A) (A)
                 (A) (A) (A) (A) (A) (A) (A) (A) (A) (A) (A) (A)
                 (A) (A) (A) (A) (A) (A) (A) (A) (A) (A) (A) (A)
                 (A) (A) (A) (A) (A) (A) (A) (A) (A) (A) (A) (A)
                 (A) (A) (A) (A) (A) (A) (A) (A) (A) (A) (A) (A)
                 (A) (A) (A) (A) (A) (A) (A) (A) (A) (A) (A) (A)
                 (A) (A) (A) (A) (A) (A) (A) (A) (A) (A) (A) (A)
                 (A) (A) (A) (A) (A) (A) (A) (A) (A) (A) (A) (A)
                 (A) (A) (A) (A) (A) (A) (A) (A) (A) (A) (A) (A)
                 (A) (A) (A) (A) (A) (A) (A) (A) (A) (A) (A) (A)
                 (A) (A) (A) (A) (A) (A) (A) (A) (A) (A) (A) (A)
                 (A) (A) (A) (A) (A)
 The electronic state is 1-A.
 Alpha  occ. eigenvalues --  -19.21174 -19.20562 -19.15088 -19.14145 -10.33567
 Alpha  occ. eigenvalues --  -10.33314 -10.23255 -10.23138 -10.23018 -10.22594
 Alpha  occ. eigenvalues --  -10.21901 -10.21744  -1.12373  -1.10716  -1.02528
 Alpha  occ. eigenvalues --   -1.02172  -0.88732  -0.80088  -0.77456  -0.69775
 Alpha  occ. eigenvalues --   -0.64947  -0.63612  -0.61113  -0.57146  -0.52946
 Alpha  occ. eigenvalues --   -0.50129  -0.48237  -0.47107  -0.46489  -0.45408
 Alpha  occ. eigenvalues --   -0.44774  -0.44306  -0.43266  -0.40222  -0.38653
 Alpha  occ. eigenvalues --   -0.37405  -0.37214  -0.33235  -0.32401  -0.29138
 Alpha  occ. eigenvalues --   -0.28329  -0.28224  -0.27772
 Alpha virt. eigenvalues --   -0.08354  -0.03089   0.00081   0.03336   0.06451
 Alpha virt. eigenvalues --    0.07596   0.10529   0.13445   0.16229   0.16614
 Alpha virt. eigenvalues --    0.19029   0.21724   0.23789   0.25075   0.25156
 Alpha virt. eigenvalues --    0.28048   0.29361   0.31824   0.37412   0.38261
 Alpha virt. eigenvalues --    0.42186   0.48216   0.48304   0.50491   0.50630
 Alpha virt. eigenvalues --    0.52846   0.53641   0.55440   0.56561   0.56754
 Alpha virt. eigenvalues --    0.57264   0.59013   0.59595   0.60557   0.62711
 Alpha virt. eigenvalues --    0.63529   0.67786   0.68695   0.69811   0.71013
 Alpha virt. eigenvalues --    0.73264   0.76943   0.77337   0.77912   0.80054
 Alpha virt. eigenvalues --    0.80745   0.81438   0.82483   0.87461   0.89559
 Alpha virt. eigenvalues --    0.90790   0.92490   0.92534   0.93289   0.96002
 Alpha virt. eigenvalues --    0.97474   1.01147   1.02091   1.03963   1.04701
 Alpha virt. eigenvalues --    1.04715   1.08656   1.13643   1.15850   1.21338
 Alpha virt. eigenvalues --    1.21708   1.23133   1.26067   1.27312   1.29033
 Alpha virt. eigenvalues --    1.29595   1.32385   1.38123   1.39694   1.40062
 Alpha virt. eigenvalues --    1.41956   1.42511   1.46018   1.46194   1.48132
 Alpha virt. eigenvalues --    1.48296   1.54648   1.65083   1.67088   1.68036
 Alpha virt. eigenvalues --    1.68053   1.74169   1.74851   1.76004   1.77486
 Alpha virt. eigenvalues --    1.81539   1.82545   1.84340   1.84976   1.85805
 Alpha virt. eigenvalues --    1.86280   1.89765   1.90956   1.91719   1.95261
 Alpha virt. eigenvalues --    1.98685   1.99123   2.03660   2.08238   2.10297
 Alpha virt. eigenvalues --    2.11734   2.12782   2.13304   2.21971   2.23537
 Alpha virt. eigenvalues --    2.26136   2.27152   2.29239   2.37741   2.42760
 Alpha virt. eigenvalues --    2.45772   2.46402   2.46463   2.48442   2.57199
 Alpha virt. eigenvalues --    2.59597   2.62765   2.63791   2.67707   2.68709
 Alpha virt. eigenvalues --    2.72973   2.74006   2.77637   2.80879   2.87496
 Alpha virt. eigenvalues --    2.92905   2.96459   3.05523   3.06449   3.11873
 Alpha virt. eigenvalues --    3.18564   3.41617   3.84163   3.87177   4.04074
 Alpha virt. eigenvalues --    4.08184   4.08222   4.17473   4.26213   4.31085
 Alpha virt. eigenvalues --    4.35735   4.48166   4.50719   4.72298
          Condensed to atoms (all electrons):
              1          2          3          4          5          6
     1  O    8.245862   0.284321  -0.099020  -0.093521   0.004710  -0.000054
     2  C    0.284321   4.407467   0.576428   0.290343  -0.047987   0.007681
     3  O   -0.099020   0.576428   8.052343  -0.090661   0.003375   0.000819
     4  C   -0.093521   0.290343  -0.090661   4.924602   0.504693  -0.021893
     5  C    0.004710  -0.047987   0.003375   0.504693   5.071173   0.427985
     6  C   -0.000054   0.007681   0.000819  -0.021893   0.427985   5.045920
     7  C    0.000002   0.000157  -0.000013  -0.026343  -0.025105   0.498144
     8  C    0.000358   0.005517  -0.000058  -0.018849  -0.043250  -0.059842
     9  C    0.001202  -0.036219   0.003880   0.502159  -0.069238  -0.037543
    10  C    0.000000   0.000001   0.000000   0.000060   0.006141  -0.029038
    11  O    0.000000   0.000000   0.000000  -0.000026   0.001142   0.003260
    12  O    0.000000   0.000000   0.000000  -0.000020  -0.000042   0.005056
    13  H    0.000274  -0.008780   0.010798  -0.039673   0.359155  -0.038744
    14  H    0.000000  -0.000151   0.000001   0.003133  -0.038425   0.358504
    15  H   -0.000004  -0.000155   0.000000   0.002846   0.000650   0.005157
    16  H    0.008686  -0.010508   0.000089  -0.030727   0.005387   0.000381
    17  H    0.220621  -0.010880   0.012666   0.011963  -0.000310   0.000001
    18  H    0.000000   0.000000   0.000000   0.000006  -0.000023  -0.000461
              7          8          9         10         11         12
     1  O    0.000002   0.000358   0.001202   0.000000   0.000000   0.000000
     2  C    0.000157   0.005517  -0.036219   0.000001   0.000000   0.000000
     3  O   -0.000013  -0.000058   0.003880   0.000000   0.000000   0.000000
     4  C   -0.026343  -0.018849   0.502159   0.000060  -0.000026  -0.000020
     5  C   -0.025105  -0.043250  -0.069238   0.006141   0.001142  -0.000042
     6  C    0.498144  -0.059842  -0.037543  -0.029038   0.003260   0.005056
     7  C    5.047198   0.469834  -0.024246   0.279344  -0.103360  -0.102686
     8  C    0.469834   5.093706   0.472190  -0.036227   0.003676   0.001490
     9  C   -0.024246   0.472190   5.013077   0.003736  -0.000033   0.000609
    10  C    0.279344  -0.036227   0.003736   4.363790   0.585690   0.273892
    11  O   -0.103360   0.003676  -0.000033   0.585690   8.017018  -0.073795
    12  O   -0.102686   0.001490   0.000609   0.273892  -0.073795   8.252940
    13  H    0.003400   0.000370   0.005318  -0.000095   0.000002   0.000000
    14  H   -0.038603   0.005232   0.000634  -0.008884   0.014694   0.000290
    15  H   -0.052038   0.339907  -0.026726  -0.006091   0.000023   0.002405
    16  H    0.003234  -0.042349   0.357068  -0.000083   0.000000   0.000004
    17  H    0.000001   0.000010  -0.000503   0.000000   0.000000   0.000000
    18  H   -0.004642   0.008272   0.000450  -0.009818   0.004003   0.223194
             13         14         15         16         17         18
     1  O    0.000274   0.000000  -0.000004   0.008686   0.220621   0.000000
     2  C   -0.008780  -0.000151  -0.000155  -0.010508  -0.010880   0.000000
     3  O    0.010798   0.000001   0.000000   0.000089   0.012666   0.000000
     4  C   -0.039673   0.003133   0.002846  -0.030727   0.011963   0.000006
     5  C    0.359155  -0.038425   0.000650   0.005387  -0.000310  -0.000023
     6  C   -0.038744   0.358504   0.005157   0.000381   0.000001  -0.000461
     7  C    0.003400  -0.038603  -0.052038   0.003234   0.000001  -0.004642
     8  C    0.000370   0.005232   0.339907  -0.042349   0.000010   0.008272
     9  C    0.005318   0.000634  -0.026726   0.357068  -0.000503   0.000450
    10  C   -0.000095  -0.008884  -0.006091  -0.000083   0.000000  -0.009818
    11  O    0.000002   0.014694   0.000023   0.000000   0.000000   0.004003
    12  O    0.000000   0.000290   0.002405   0.000004   0.000000   0.223194
    13  H    0.535793  -0.004141   0.000018  -0.000146  -0.000029   0.000000
    14  H   -0.004141   0.526471  -0.000134   0.000014   0.000000  -0.000034
    15  H    0.000018  -0.000134   0.603987  -0.004824   0.000000   0.011595
    16  H   -0.000146   0.000014  -0.004824   0.544054  -0.000254  -0.000013
    17  H   -0.000029   0.000000   0.000000  -0.000254   0.350847   0.000000
    18  H    0.000000  -0.000034   0.011595  -0.000013   0.000000   0.341680
 Mulliken atomic charges:
              1
     1  O   -0.573440
     2  C    0.542764
     3  O   -0.470646
     4  C    0.081908
     5  C   -0.160028
     6  C   -0.165334
     7  C    0.075722
     8  C   -0.199988
     9  C   -0.165814
    10  C    0.577582
    11  O   -0.452296
    12  O   -0.583336
    13  H    0.176480
    14  H    0.181399
    15  H    0.123384
    16  H    0.169984
    17  H    0.415868
    18  H    0.425792
 Sum of Mulliken atomic charges =   0.00000
 Mulliken charges with hydrogens summed into heavy atoms:
              1
     1  O   -0.157572
     2  C    0.542764
     3  O   -0.470646
     4  C    0.081908
     5  C    0.016451
     6  C    0.016065
     7  C    0.075722
     8  C   -0.076604
     9  C    0.004170
    10  C    0.577582
    11  O   -0.452296
    12  O   -0.157544
 Sum of Mulliken charges with hydrogens summed into heavy atoms =   0.00000
 Electronic spatial extent (au):  <R**2>=           2538.6584
 Charge=              0.0000 electrons
 Dipole moment (field-independent basis, Debye):
    X=              2.4925    Y=              4.0006    Z=              0.0026  Tot=              4.7136
 Quadrupole moment (field-independent basis, Debye-Ang):
   XX=            -79.8032   YY=            -61.9818   ZZ=            -67.5141
   XY=             -2.1793   XZ=             -0.0067   YZ=             -0.0016
 Traceless Quadrupole moment (field-independent basis, Debye-Ang):
   XX=            -10.0369   YY=              7.7846   ZZ=              2.2523
   XY=             -2.1793   XZ=             -0.0067   YZ=             -0.0016
 Octapole moment (field-independent basis, Debye-Ang**2):
  XXX=            112.0147  YYY=             14.2708  ZZZ=             -0.0095  XYY=            -13.4886
  XXY=             59.9776  XXZ=              0.0279  XZZ=              0.4323  YZZ=             -0.1489
  YYZ=              0.0039  XYZ=             -0.0121
 Hexadecapole moment (field-independent basis, Debye-Ang**3):
 XXXX=          -2589.0221 YYYY=           -438.9683 ZZZZ=            -60.8814 XXXY=             75.3978
 XXXZ=             -0.1272 YYYX=            -37.2319 YYYZ=              0.0102 ZZZX=             -0.0099
 ZZZY=              0.0097 XXYY=           -519.0596 XXZZ=           -414.8842 YYZZ=            -96.2727
 XXYZ=             -0.0282 YYXZ=             -0.0256 ZZXY=              0.0097
 N-N= 6.419012533485D+02 E-N=-2.707553337505D+03  KE= 6.038609927054D+02
 Merz-Kollman atomic radii used.

 **********************************************************************

            Electrostatic Properties Using The SCF Density

 **********************************************************************

       Atomic Center    1 is at   3.449037  1.121592 -0.000236
       Atomic Center    2 is at   2.879985 -0.096590  0.000072
       Atomic Center    3 is at   3.552595 -1.110159 -0.000654
       Atomic Center    4 is at   1.397956 -0.036432  0.000738
       Atomic Center    5 is at   0.683237 -1.236922  0.000561
       Atomic Center    6 is at  -0.715571 -1.220011  0.000633
       Atomic Center    7 is at  -1.425280 -0.006764  0.000343
       Atomic Center    8 is at  -0.702144  1.194655 -0.000572
       Atomic Center    9 is at   0.700952  1.177579  0.000472
       Atomic Center   10 is at  -2.918306 -0.099771 -0.000148
       Atomic Center   11 is at  -3.497014 -1.175336 -0.000755
       Atomic Center   12 is at  -3.597744  1.063537  0.000112
       Atomic Center   13 is at   1.207713 -2.191270  0.000368
       Atomic Center   14 is at  -1.252461 -2.168948  0.000065
       Atomic Center   15 is at  -1.178539  2.167938 -0.001253
       Atomic Center   16 is at   1.242233  2.122013  0.000177
       Atomic Center   17 is at   4.410997  0.929870 -0.000662
       Atomic Center   18 is at  -3.089891  1.888862  0.000980
     987 points will be used for fitting atomic charges
 Fitting point charges to electrostatic potential
 Charges from ESP fit, RMS=   0.00129 RRMS=   0.06846:
 Charge=   0.00000 Dipole=     2.4806     4.0093     0.0032 Tot=     4.7146
              1
     1  O   -0.559149
     2  C    0.551862
     3  O   -0.484939
     4  C    0.074551
     5  C   -0.166378
     6  C   -0.032237
     7  C   -0.093558
     8  C   -0.141778
     9  C   -0.123555
    10  C    0.625112
    11  O   -0.443916
    12  O   -0.555776
    13  H    0.141438
    14  H    0.109082
    15  H    0.110630
    16  H    0.140816
    17  H    0.430845
    18  H    0.416953
 -----------------------------------------------------------------

              Electrostatic Properties (Atomic Units)

 -----------------------------------------------------------------
    Center     Electric         -------- Electric Field --------
               Potential          X             Y             Z
 -----------------------------------------------------------------
    1 Atom    -22.250418
    2 Atom    -14.591032
    3 Atom    -22.316427
    4 Atom    -14.698348
    5 Atom    -14.710177
    6 Atom    -14.711463
    7 Atom    -14.696020
    8 Atom    -14.696649
    9 Atom    -14.702537
   10 Atom    -14.591881
   11 Atom    -22.326009
   12 Atom    -22.254415
   13 Atom     -1.086411
   14 Atom     -1.090165
   15 Atom     -1.062809
   16 Atom     -1.078659
   17 Atom     -0.935945
   18 Atom     -0.930036
 -----------------------------------------------------------------
 Calling FoFJK, ICntrl=      2127 FMM=F ISym2X=0 I1Cent= 0 IOpClX= 0 NMat=1 NMatS=1 NMatT=0.
 ***** Axes restored to original set *****
 -------------------------------------------------------------------
 Center     Atomic                   Forces (Hartrees/Bohr)
 Number     Number              X              Y              Z
 -------------------------------------------------------------------
      1        8           0.006867696    0.000029047   -0.009594234
      2        6           0.003958641   -0.000027140    0.004872903
      3        8          -0.003982223    0.000022589    0.002934340
      4        6          -0.001843306   -0.000017337    0.001939375
      5        6          -0.008168148    0.000016453    0.008628940
      6        6           0.009727643   -0.000032294    0.000502424
      7        6           0.007624169   -0.000070822    0.001647890
      8        6           0.012957065    0.000152052   -0.001795549
      9        6          -0.009085808   -0.000093566   -0.001862218
     10        6           0.008747999    0.000001847    0.010000861
     11        8          -0.006241208    0.000011362   -0.021791427
     12        8          -0.019460319   -0.000031076    0.010006117
     13        1          -0.000727063    0.000001846   -0.004093637
     14        1          -0.003924485    0.000036125   -0.004805972
     15        1          -0.003010677   -0.000010363   -0.000205111
     16        1           0.001092752    0.000005659    0.003250823
     17        1          -0.004723780   -0.000008694   -0.002544242
     18        1           0.010191051    0.000014311    0.002908717
 -------------------------------------------------------------------
 Cartesian Forces:  Max     0.021791427 RMS     0.006311776

 GradGradGradGradGradGradGradGradGradGradGradGradGradGradGradGradGradGrad
 Berny optimization.
 Internal  Forces:  Max     0.021404870 RMS     0.004612385
 Search for a local minimum.
 Step number   1 out of a maximum of   90
 All quantities printed in internal units (Hartrees-Bohrs-Radians)
 Mixed Optimization -- RFO/linear search
 Second derivative matrix not updated -- first step.
     Eigenvalues ---    0.00820   0.00988   0.01340   0.01434   0.01648
     Eigenvalues ---    0.01767   0.02039   0.02053   0.02060   0.02070
     Eigenvalues ---    0.02070   0.02107   0.02116   0.02390   0.02425
     Eigenvalues ---    0.16000   0.16000   0.16000   0.16000   0.16000
     Eigenvalues ---    0.16000   0.22000   0.22971   0.24000   0.25000
     Eigenvalues ---    0.25000   0.25000   0.25000   0.25000   0.25000
     Eigenvalues ---    0.32809   0.34200   0.34779   0.34932   0.34981
     Eigenvalues ---    0.35560   0.41166   0.41722   0.44970   0.45357
     Eigenvalues ---    0.45573   0.45910   0.51214   0.53569   0.55624
     Eigenvalues ---    0.56200   0.94779   0.969781000.000001000.00000
     Eigenvalues --- 1000.000001000.000001000.000001000.000001000.00000
     Eigenvalues --- 1000.000001000.000001000.000001000.000001000.00000
     Eigenvalues --- 1000.000001000.000001000.000001000.000001000.00000
     Eigenvalues --- 1000.000001000.000001000.000001000.000001000.00000
     Eigenvalues --- 1000.000001000.000001000.000001000.000001000.00000
     Eigenvalues --- 1000.000001000.000001000.000001000.000001000.00000
 RFO step:  Lambda=-5.63277372D-03 EMin= 8.19918017D-03
 Linear search not attempted -- first point.
 Iteration  1 RMS(Cart)=  0.02324860 RMS(Int)=  0.00084368
 Iteration  2 RMS(Cart)=  0.00081812 RMS(Int)=  0.00000620
 Iteration  3 RMS(Cart)=  0.00000021 RMS(Int)=  0.00000620
 Variable       Old X    -DE/DX   Delta X   Delta X   Delta X     New X
                                 (Linear)    (Quad)   (Total)
    R1        2.54081   0.01213   0.00000   0.02138   0.02138   2.56219
    R2        1.85359  -0.00398   0.00000  -0.00769  -0.00769   1.84590
    R3        2.29874  -0.00187   0.00000  -0.00192  -0.00192   2.29682
    R4        2.80294   0.00363   0.00000   0.01044   0.01044   2.81338
    R5        2.64021   0.00282   0.00000   0.00634   0.00633   2.64655
    R6        2.64537  -0.00064   0.00000  -0.00119  -0.00119   2.64418
    R7        2.64356  -0.00768   0.00000  -0.01648  -0.01648   2.62708
    R8        2.05786  -0.00300   0.00000  -0.00846  -0.00846   2.04939
    R9        2.65616  -0.00289   0.00000  -0.00659  -0.00658   2.64958
   R10        2.06035  -0.00449   0.00000  -0.01269  -0.01269   2.04766
   R11        2.64989   0.00039   0.00000   0.00055   0.00056   2.65044
   R12        2.82688   0.00647   0.00000   0.01940   0.01940   2.84628
   R13        2.65166  -0.00891   0.00000  -0.01960  -0.01960   2.63206
   R14        2.04775   0.00247   0.00000   0.00684   0.00684   2.05459
   R15        2.05706  -0.00315   0.00000  -0.00886  -0.00886   2.04820
   R16        2.30805  -0.02140   0.00000  -0.02245  -0.02245   2.28560
   R17        2.54582   0.00028   0.00000   0.00050   0.00050   2.54632
   R18        1.83126  -0.00172   0.00000  -0.00318  -0.00318   1.82808
    A1        1.81108   0.00666   0.00000   0.04021   0.04021   1.85129
    A2        2.11870   0.00391   0.00000   0.01530   0.01530   2.13401
    A3        1.96724   0.00271   0.00000   0.01059   0.01059   1.97782
    A4        2.19725  -0.00662   0.00000  -0.02589  -0.02589   2.17136
    A5        2.06722  -0.00043   0.00000  -0.00219  -0.00219   2.06504
    A6        2.13255   0.00002   0.00000  -0.00045  -0.00045   2.13210
    A7        2.08341   0.00041   0.00000   0.00264   0.00263   2.08604
    A8        2.09571   0.00038   0.00000   0.00261   0.00260   2.09830
    A9        2.10209  -0.00315   0.00000  -0.01916  -0.01915   2.08293
   A10        2.08539   0.00276   0.00000   0.01655   0.01656   2.10195
   A11        2.11218  -0.00122   0.00000  -0.00558  -0.00558   2.10660
   A12        2.07359   0.00503   0.00000   0.02946   0.02946   2.10304
   A13        2.09742  -0.00381   0.00000  -0.02388  -0.02388   2.07354
   A14        2.07048   0.00070   0.00000   0.00188   0.00189   2.07238
   A15        2.03787   0.00080   0.00000   0.00357   0.00357   2.04144
   A16        2.17483  -0.00150   0.00000  -0.00546  -0.00546   2.16936
   A17        2.10044   0.00189   0.00000   0.00768   0.00769   2.10813
   A18        2.14459  -0.00271   0.00000  -0.01452  -0.01453   2.13006
   A19        2.03816   0.00083   0.00000   0.00685   0.00684   2.04500
   A20        2.10415  -0.00216   0.00000  -0.00923  -0.00923   2.09492
   A21        2.09998  -0.00032   0.00000  -0.00384  -0.00384   2.09615
   A22        2.07905   0.00248   0.00000   0.01307   0.01307   2.09212
   A23        2.12663   0.00439   0.00000   0.01716   0.01716   2.14379
   A24        2.03720   0.00846   0.00000   0.03310   0.03310   2.07029
   A25        2.11936  -0.01285   0.00000  -0.05025  -0.05025   2.06910
   A26        2.06136  -0.01915   0.00000  -0.11561  -0.11561   1.94575
    D1       -0.00045   0.00002   0.00000   0.00084   0.00086   0.00041
    D2        3.14159  -0.00001   0.00000  -0.00045  -0.00046   3.14113
    D3        3.14115   0.00002   0.00000   0.00104   0.00103  -3.14101
    D4        0.00045   0.00001   0.00000   0.00036   0.00035   0.00080
    D5        0.00002  -0.00001   0.00000  -0.00033  -0.00033  -0.00030
    D6       -3.14067  -0.00002   0.00000  -0.00101  -0.00101   3.14150
    D7       -3.14115  -0.00001   0.00000  -0.00027  -0.00027  -3.14141
    D8        0.00045  -0.00001   0.00000  -0.00032  -0.00032   0.00013
    D9       -0.00042   0.00001   0.00000   0.00039   0.00039  -0.00003
   D10        3.14117   0.00001   0.00000   0.00034   0.00034   3.14151
   D11        3.14019   0.00003   0.00000   0.00124   0.00124   3.14143
   D12       -0.00045   0.00000   0.00000   0.00026   0.00027  -0.00018
   D13       -0.00050   0.00002   0.00000   0.00056   0.00056   0.00006
   D14       -3.14114  -0.00001   0.00000  -0.00042  -0.00042  -3.14156
   D15        0.00045  -0.00001   0.00000  -0.00050  -0.00050  -0.00006
   D16        3.14115   0.00001   0.00000   0.00036   0.00037   3.14152
   D17       -3.14115  -0.00001   0.00000  -0.00045  -0.00045   3.14159
   D18       -0.00045   0.00001   0.00000   0.00041   0.00042  -0.00002
   D19        0.00045  -0.00001   0.00000  -0.00034  -0.00033   0.00011
   D20        3.14115   0.00001   0.00000   0.00042   0.00042   3.14157
   D21       -3.14024  -0.00003   0.00000  -0.00124  -0.00122  -3.14146
   D22        0.00046  -0.00002   0.00000  -0.00048  -0.00047  -0.00001
   D23       -0.00137   0.00003   0.00000   0.00127   0.00128  -0.00009
   D24        3.14115   0.00000   0.00000   0.00023   0.00024   3.14139
   D25        3.14120   0.00001   0.00000   0.00045   0.00046  -3.14153
   D26        0.00052  -0.00002   0.00000  -0.00059  -0.00058  -0.00005
   D27       -0.00045  -0.00001   0.00000  -0.00057  -0.00056  -0.00101
   D28        3.14115  -0.00002   0.00000  -0.00079  -0.00080   3.14035
   D29        3.14019   0.00001   0.00000   0.00024   0.00024   3.14043
   D30       -0.00140   0.00000   0.00000   0.00001   0.00001  -0.00139
   D31        0.00141  -0.00004   0.00000  -0.00141  -0.00141   0.00000
   D32       -3.14113  -0.00001   0.00000  -0.00045  -0.00045  -3.14157
   D33       -3.14105  -0.00001   0.00000  -0.00044  -0.00043  -3.14148
   D34       -0.00040   0.00001   0.00000   0.00052   0.00053   0.00013
   D35       -0.00045   0.00000   0.00000  -0.00003  -0.00003  -0.00048
   D36        3.14115  -0.00001   0.00000  -0.00026  -0.00025   3.14089
         Item               Value     Threshold  Converged?
 Maximum Force            0.021405     0.000450     NO 
 RMS     Force            0.004612     0.000300     NO 
 Maximum Displacement     0.113831     0.001800     NO 
 RMS     Displacement     0.023474     0.001200     NO 
 Predicted change in Energy=-2.887685D-03
 GradGradGradGradGradGradGradGradGradGradGradGradGradGradGradGradGradGrad

                          Input orientation:                          
 ---------------------------------------------------------------------
 Center     Atomic      Atomic             Coordinates (Angstroms)
 Number     Number       Type             X           Y           Z
 ---------------------------------------------------------------------
      1          8           0        0.019435    0.000353   -0.011134
      2          6           0        0.001572   -0.000329    1.344601
      3          8           0        1.020631    0.000861    2.007003
      4          6           0       -1.373217   -0.001457    1.915917
      5          6           0       -1.513575   -0.001512    3.309357
      6          6           0       -2.778875   -0.002764    3.885239
      7          6           0       -3.929801   -0.003919    3.084463
      8          6           0       -3.780995   -0.003928    1.689825
      9          6           0       -2.515563   -0.002709    1.107886
     10          6           0       -5.257145   -0.005265    3.796329
     11          8           0       -5.354670   -0.006401    5.001879
     12          8           0       -6.384956   -0.004928    3.058989
     13          1           0       -0.626246   -0.000614    3.932872
     14          1           0       -2.892584   -0.002879    4.962829
     15          1           0       -4.636189   -0.004983    1.018455
     16          1           0       -2.417837   -0.002713    0.028438
     17          1           0        0.961552    0.001490   -0.269152
     18          1           0       -6.188904   -0.003368    2.111688
 ---------------------------------------------------------------------
                    Distance matrix (angstroms):
                    1          2          3          4          5
     1  O    0.000000
     2  C    1.355853   0.000000
     3  O    2.252837   1.215426   0.000000
     4  C    2.377605   1.488774   2.395582   0.000000
     5  C    3.657292   2.481117   2.849269   1.400492   0.000000
     6  C    4.797110   3.766395   4.238399   2.419525   1.390188
     7  C    5.017888   4.299166   5.066332   2.810983   2.426671
     8  C    4.163717   3.798290   4.812093   2.418371   2.786410
     9  C    2.770998   2.528243   3.648712   1.399240   2.418772
    10  C    6.506850   5.802163   6.527802   4.315189   3.775112
    11  O    7.349242   6.485758   7.043707   5.037376   4.197460
    12  O    7.102246   6.612631   7.479935   5.140443   4.877812
    13  H    3.996510   2.663326   2.534004   2.150832   1.084493
    14  H    5.763694   4.633327   4.904097   3.404725   2.153052
    15  H    4.768114   4.649217   5.742549   3.384144   3.872849
    16  H    2.437595   2.754239   3.967090   2.157269   3.403252
    17  H    0.976811   1.877702   2.276922   3.197762   4.351091
    18  H    6.561239   6.237822   7.210296   4.819665   4.826294
                    6          7          8          9         10
     6  C    0.000000
     7  C    1.402096   0.000000
     8  C    2.413314   1.402554   0.000000
     9  C    2.789807   2.430417   1.392828   0.000000
    10  C    2.479866   1.506186   2.572232   3.839792   0.000000
    11  O    2.807423   2.388879   3.666901   4.819100   1.209490
    12  O    3.699529   2.455287   2.941976   4.333475   1.347452
    13  H    2.153157   3.410761   3.870880   3.398540   4.632914
    14  H    1.083573   2.145712   3.391434   3.873336   2.636641
    15  H    3.415855   2.183431   1.087242   2.122511   2.846431
    16  H    3.873662   3.409593   2.149048   1.083863   4.717910
    17  H    5.590149   5.930607   5.131215   3.739864   7.429695
    18  H    3.843668   2.459642   2.444585   3.808024   1.925147
                   11         12         13         14         15
    11  O    0.000000
    12  O    2.199162   0.000000
    13  H    4.847763   5.824640   0.000000
    14  H    2.462399   3.977596   2.489398   0.000000
    15  H    4.047701   2.687371   4.957165   4.312568   0.000000
    16  H    5.775822   4.992221   4.295860   4.957176   2.429243
    17  H    8.226694   8.065218   4.492006   6.498308   5.743925
    18  H    3.008182   0.967377   5.853195   4.358294   1.898969
                   16         17         18
    16  H    0.000000
    17  H    3.392469   0.000000
    18  H    4.308233   7.536407   0.000000
 Stoichiometry    C8H6O4
 Framework group  C1[X(C8H6O4)]
 Deg. of freedom    48
 Full point group                 C1      NOp   1
 Largest Abelian subgroup         C1      NOp   1
 Largest concise Abelian subgroup C1      NOp   1
                         Standard orientation:                         
 ---------------------------------------------------------------------
 Center     Atomic      Atomic             Coordinates (Angstroms)
 Number     Number       Type             X           Y           Z
 ---------------------------------------------------------------------
      1          8           0        3.475394    1.123909    0.000102
      2          6           0        2.885799   -0.097039   -0.000232
      3          8           0        3.529060   -1.128288    0.000261
      4          6           0        1.398391   -0.033271   -0.000058
      5          6           0        0.681850   -1.236577    0.000349
      6          6           0       -0.708275   -1.223255    0.000308
      7          6           0       -1.412503   -0.010845   -0.000073
      8          6           0       -0.687799    1.189973   -0.000551
      9          6           0        0.705007    1.182084   -0.000544
     10          6           0       -2.916363   -0.094504   -0.000122
     11          8           0       -3.514625   -1.145669   -0.000879
     12          8           0       -3.626474    1.050647    0.000986
     13          1           0        1.222191   -2.176873    0.000651
     14          1           0       -1.267079   -2.151623    0.000553
     15          1           0       -1.178780    2.160041   -0.001049
     16          1           0        1.250114    2.118896   -0.000896
     17          1           0        4.438226    0.959245    0.000379
     18          1           0       -3.048159    1.826126    0.002147
 ---------------------------------------------------------------------
 Rotational constants (GHZ):      2.9309420      0.4560036      0.3946093
 Standard basis: 6-31G(d) (6D, 7F)
 There are   192 symmetry adapted basis functions of A   symmetry.
 Integral buffers will be    131072 words long.
 Raffenetti 2 integral format.
 Two-electron integral symmetry is turned on.
   192 basis functions,   360 primitive gaussians,   192 cartesian basis functions
    43 alpha electrons       43 beta electrons
       nuclear repulsion energy       641.7987455134 Hartrees.
 NAtoms=   18 NActive=   18 NUniq=   18 SFac= 7.50D-01 NAtFMM=   80 NAOKFM=F Big=F
 One-electron integrals computed using PRISM.
 NBasis=   192 RedAO= T  NBF=   192
 NBsUse=   192 1.00D-06 NBFU=   192
 Initial guess read from the read-write file.
 B after Tr=     0.000000    0.000000    0.000000
         Rot=    1.000000    0.000000    0.000000    0.000000 Ang=   0.00 deg.
 Initial guess orbital symmetries:
       Occupied  (A) (A) (A) (A) (A) (A) (A) (A) (A) (A) (A) (A)
                 (A) (A) (A) (A) (A) (A) (A) (A) (A) (A) (A) (A)
                 (A) (A) (A) (A) (A) (A) (A) (A) (A) (A) (A) (A)
                 (A) (A) (A) (A) (A) (A) (A)
       Virtual   (A) (A) (A) (A) (A) (A) (A) (A) (A) (A) (A) (A)
                 (A) (A) (A) (A) (A) (A) (A) (A) (A) (A) (A) (A)
                 (A) (A) (A) (A) (A) (A) (A) (A) (A) (A) (A) (A)
                 (A) (A) (A) (A) (A) (A) (A) (A) (A) (A) (A) (A)
                 (A) (A) (A) (A) (A) (A) (A) (A) (A) (A) (A) (A)
                 (A) (A) (A) (A) (A) (A) (A) (A) (A) (A) (A) (A)
                 (A) (A) (A) (A) (A) (A) (A) (A) (A) (A) (A) (A)
                 (A) (A) (A) (A) (A) (A) (A) (A) (A) (A) (A) (A)
                 (A) (A) (A) (A) (A) (A) (A) (A) (A) (A) (A) (A)
                 (A) (A) (A) (A) (A) (A) (A) (A) (A) (A) (A) (A)
                 (A) (A) (A) (A) (A) (A) (A) (A) (A) (A) (A) (A)
                 (A) (A) (A) (A) (A) (A) (A) (A) (A) (A) (A) (A)
                 (A) (A) (A) (A) (A)
 Harris functional with IExCor=  402 diagonalized for initial guess.
 ExpMin= 1.61D-01 ExpMax= 5.48D+03 ExpMxC= 8.25D+02 IAcc=1 IRadAn=         1 AccDes= 0.00D+00
 HarFok:  IExCor=  402 AccDes= 0.00D+00 IRadAn=         1 IDoV= 1
 ScaDFX=  1.000000  1.000000  1.000000  1.000000
 FoFCou: FMM=F IPFlag=           0 FMFlag=      100000 FMFlg1=           0
         NFxFlg=           0 DoJE=T BraDBF=F KetDBF=T FulRan=T
         Omega=  0.000000  0.000000  1.000000  0.000000  0.000000 ICntrl=     500 IOpCl=  0
         NMat0=    1 NMatS0=    1 NMatT0=    0 NMatD0=    1 NMtDS0=    0 NMtDT0=    0
         I1Cent=           4 NGrid=           0.
 Petite list used in FoFCou.
 Requested convergence on RMS density matrix=1.00D-08 within 128 cycles.
 Requested convergence on MAX density matrix=1.00D-06.
 Requested convergence on             energy=1.00D-06.
 No special actions if energy rises.
 Keep R1 ints in memory in canonical form, NReq=175529798.
 Integral accuracy reduced to 1.0D-05 until final iterations.
 Initial convergence to 1.0D-05 achieved.  Increase integral accuracy.
 SCF Done:  E(RB3LYP) =  -609.380709417     A.U. after   12 cycles
             Convg  =    0.8532D-08             -V/T =  2.0090
 Calling FoFJK, ICntrl=      2127 FMM=F ISym2X=0 I1Cent= 0 IOpClX= 0 NMat=1 NMatS=1 NMatT=0.
 ***** Axes restored to original set *****
 -------------------------------------------------------------------
 Center     Atomic                   Forces (Hartrees/Bohr)
 Number     Number              X              Y              Z
 -------------------------------------------------------------------
      1        8          -0.000089976   -0.000035001   -0.000682027
      2        6           0.004086241    0.000128705    0.002237560
      3        8          -0.002058535   -0.000046827   -0.001377383
      4        6          -0.000292393   -0.000047045   -0.000688801
      5        6          -0.001380607   -0.000004762    0.001502955
      6        6           0.001872277    0.000005271    0.000194271
      7        6          -0.000475731   -0.000010901   -0.000776543
      8        6           0.000697072    0.000007410   -0.000392429
      9        6          -0.001486027    0.000003917   -0.000549710
     10        6           0.002139256    0.000021752    0.007143396
     11        8           0.003817169   -0.000011885    0.000679900
     12        8          -0.004610166   -0.000007086   -0.005022029
     13        1           0.000778980    0.000000391   -0.000858794
     14        1          -0.001284815    0.000000028    0.000409756
     15        1          -0.001016771   -0.000006523    0.000091087
     16        1           0.000628270   -0.000002745   -0.000058512
     17        1          -0.001364894   -0.000003520    0.000918252
     18        1           0.000040650    0.000008819   -0.002770947
 -------------------------------------------------------------------
 Cartesian Forces:  Max     0.007143396 RMS     0.001788255

 GradGradGradGradGradGradGradGradGradGradGradGradGradGradGradGradGradGrad
 Berny optimization.
 Using GEDIIS/GDIIS optimizer.
 Internal  Forces:  Max     0.008095290 RMS     0.001424251
 Search for a local minimum.
 Step number   2 out of a maximum of   90
 All quantities printed in internal units (Hartrees-Bohrs-Radians)
 Mixed Optimization -- RFO/linear search
 Update second derivatives using D2CorX and points    1    2
 DE= -2.62D-03 DEPred=-2.89D-03 R= 9.07D-01
 SS=  1.41D+00  RLast= 1.59D-01 DXNew= 5.0454D-01 4.7727D-01
 Trust test= 9.07D-01 RLast= 1.59D-01 DXMaxT set to 4.77D-01
 Use linear search instead of GDIIS.
     Eigenvalues ---    0.00820   0.00988   0.01313   0.01451   0.01649
     Eigenvalues ---    0.01767   0.02039   0.02053   0.02062   0.02070
     Eigenvalues ---    0.02070   0.02107   0.02116   0.02390   0.02425
     Eigenvalues ---    0.14440   0.16000   0.16000   0.16000   0.16000
     Eigenvalues ---    0.16545   0.21962   0.22973   0.23885   0.24818
     Eigenvalues ---    0.25000   0.25000   0.25000   0.25000   0.29453
     Eigenvalues ---    0.33240   0.34176   0.34862   0.34952   0.35011
     Eigenvalues ---    0.35528   0.41204   0.41604   0.44649   0.45110
     Eigenvalues ---    0.45529   0.45858   0.51032   0.53728   0.54967
     Eigenvalues ---    0.58803   0.94304   0.973101000.000001000.00000
     Eigenvalues --- 1000.000001000.000001000.000001000.000001000.00000
     Eigenvalues --- 1000.000001000.000001000.000001000.000001000.00000
     Eigenvalues --- 1000.000001000.000001000.000001000.000001000.00000
     Eigenvalues --- 1000.000001000.000001000.000001000.000001000.00000
     Eigenvalues --- 1000.000001000.000001000.000001000.000001000.00000
     Eigenvalues --- 1000.000001000.000001000.000001000.000001000.00000
 RFO step:  Lambda=-3.69819855D-04 EMin= 8.19916924D-03
 Quartic linear search produced a step of -0.07856.
 Iteration  1 RMS(Cart)=  0.00766830 RMS(Int)=  0.00002773
 Iteration  2 RMS(Cart)=  0.00003400 RMS(Int)=  0.00000102
 Iteration  3 RMS(Cart)=  0.00000000 RMS(Int)=  0.00000102
 Variable       Old X    -DE/DX   Delta X   Delta X   Delta X     New X
                                 (Linear)    (Quad)   (Total)
    R1        2.56219  -0.00026  -0.00168   0.00269   0.00101   2.56320
    R2        1.84590  -0.00156   0.00060  -0.00392  -0.00332   1.84259
    R3        2.29682  -0.00247   0.00015  -0.00263  -0.00248   2.29435
    R4        2.81338   0.00011  -0.00082   0.00183   0.00101   2.81439
    R5        2.64655   0.00040  -0.00050   0.00174   0.00124   2.64778
    R6        2.64418   0.00096   0.00009   0.00183   0.00193   2.64610
    R7        2.62708  -0.00090   0.00129  -0.00428  -0.00298   2.62409
    R8        2.04939   0.00014   0.00066  -0.00087  -0.00020   2.04919
    R9        2.64958   0.00022   0.00052  -0.00058  -0.00007   2.64951
   R10        2.04766   0.00054   0.00100  -0.00044   0.00056   2.04822
   R11        2.65044   0.00000  -0.00004   0.00006   0.00001   2.65046
   R12        2.84628  -0.00121  -0.00152  -0.00053  -0.00205   2.84422
   R13        2.63206  -0.00036   0.00154  -0.00355  -0.00201   2.63005
   R14        2.05459   0.00074  -0.00054   0.00293   0.00240   2.05699
   R15        2.04820   0.00011   0.00070  -0.00100  -0.00031   2.04790
   R16        2.28560   0.00037   0.00176  -0.00290  -0.00114   2.28447
   R17        2.54632   0.00810  -0.00004   0.01347   0.01343   2.55975
   R18        1.82808   0.00273   0.00025   0.00422   0.00447   1.83255
    A1        1.85129  -0.00098  -0.00316   0.00048  -0.00268   1.84861
    A2        2.13401   0.00088  -0.00120   0.00554   0.00433   2.13834
    A3        1.97782  -0.00184  -0.00083  -0.00518  -0.00601   1.97181
    A4        2.17136   0.00095   0.00203  -0.00036   0.00168   2.17303
    A5        2.06504  -0.00076   0.00017  -0.00327  -0.00310   2.06194
    A6        2.13210  -0.00002   0.00003  -0.00031  -0.00027   2.13183
    A7        2.08604   0.00078  -0.00021   0.00358   0.00337   2.08941
    A8        2.09830  -0.00033  -0.00020  -0.00089  -0.00109   2.09721
    A9        2.08293  -0.00101   0.00150  -0.00902  -0.00752   2.07542
   A10        2.10195   0.00134  -0.00130   0.00991   0.00861   2.11056
   A11        2.10660  -0.00056   0.00044  -0.00325  -0.00281   2.10379
   A12        2.10304   0.00155  -0.00231   0.01296   0.01065   2.11369
   A13        2.07354  -0.00099   0.00188  -0.00971  -0.00784   2.06570
   A14        2.07238   0.00133  -0.00015   0.00517   0.00502   2.07740
   A15        2.04144  -0.00136  -0.00028  -0.00447  -0.00475   2.03669
   A16        2.16936   0.00003   0.00043  -0.00069  -0.00026   2.16910
   A17        2.10813  -0.00067  -0.00060  -0.00141  -0.00202   2.10611
   A18        2.13006  -0.00038   0.00114  -0.00503  -0.00388   2.12617
   A19        2.04500   0.00105  -0.00054   0.00644   0.00590   2.05090
   A20        2.09492  -0.00054   0.00072  -0.00320  -0.00247   2.09245
   A21        2.09615  -0.00037   0.00030  -0.00336  -0.00305   2.09309
   A22        2.09212   0.00091  -0.00103   0.00655   0.00553   2.09764
   A23        2.14379  -0.00277  -0.00135  -0.00765  -0.00899   2.13479
   A24        2.07029  -0.00327  -0.00260  -0.00709  -0.00969   2.06060
   A25        2.06910   0.00604   0.00395   0.01474   0.01869   2.08779
   A26        1.94575   0.00096   0.00908  -0.01208  -0.00300   1.94275
    D1        0.00041  -0.00003  -0.00007  -0.00152  -0.00159  -0.00118
    D2        3.14113   0.00003   0.00004   0.00171   0.00175  -3.14030
    D3       -3.14101  -0.00003  -0.00008  -0.00157  -0.00165   3.14053
    D4        0.00080  -0.00003  -0.00003  -0.00190  -0.00192  -0.00112
    D5       -0.00030   0.00003   0.00003   0.00174   0.00177   0.00146
    D6        3.14150   0.00003   0.00008   0.00142   0.00149  -3.14019
    D7       -3.14141   0.00000   0.00002  -0.00027  -0.00025   3.14152
    D8        0.00013   0.00000   0.00002  -0.00020  -0.00017  -0.00004
    D9       -0.00003   0.00000  -0.00003   0.00005   0.00002  -0.00001
   D10        3.14151   0.00000  -0.00003   0.00012   0.00009  -3.14158
   D11        3.14143   0.00000  -0.00010   0.00047   0.00038  -3.14138
   D12       -0.00018   0.00001  -0.00002   0.00030   0.00028   0.00010
   D13        0.00006   0.00000  -0.00004   0.00015   0.00010   0.00016
   D14       -3.14156   0.00000   0.00003  -0.00003   0.00000  -3.14155
   D15       -0.00006   0.00000   0.00004  -0.00008  -0.00005  -0.00010
   D16        3.14152   0.00000  -0.00003   0.00015   0.00012  -3.14155
   D17        3.14159   0.00000   0.00004  -0.00015  -0.00012   3.14147
   D18       -0.00002   0.00000  -0.00003   0.00008   0.00004   0.00002
   D19        0.00011   0.00000   0.00003  -0.00007  -0.00004   0.00007
   D20        3.14157   0.00000  -0.00003   0.00012   0.00008  -3.14154
   D21       -3.14146   0.00000   0.00010  -0.00030  -0.00020   3.14152
   D22       -0.00001   0.00000   0.00004  -0.00011  -0.00008  -0.00008
   D23       -0.00009   0.00000  -0.00010   0.00027   0.00017   0.00008
   D24        3.14139   0.00000  -0.00002  -0.00007  -0.00008   3.14130
   D25       -3.14153   0.00000  -0.00004   0.00007   0.00003  -3.14150
   D26       -0.00005   0.00000   0.00005  -0.00027  -0.00022  -0.00027
   D27       -0.00101  -0.00001   0.00004  -0.00111  -0.00106  -0.00207
   D28        3.14035   0.00000   0.00006  -0.00032  -0.00026   3.14009
   D29        3.14043  -0.00001  -0.00002  -0.00091  -0.00093   3.13951
   D30       -0.00139   0.00000   0.00000  -0.00012  -0.00012  -0.00151
   D31        0.00000   0.00000   0.00011  -0.00031  -0.00019  -0.00019
   D32       -3.14157   0.00000   0.00003  -0.00013  -0.00010   3.14152
   D33       -3.14148   0.00000   0.00003   0.00001   0.00004  -3.14143
   D34        0.00013   0.00000  -0.00004   0.00018   0.00014   0.00028
   D35       -0.00048  -0.00001   0.00000  -0.00055  -0.00055  -0.00103
   D36        3.14089   0.00000   0.00002   0.00020   0.00023   3.14112
         Item               Value     Threshold  Converged?
 Maximum Force            0.008095     0.000450     NO 
 RMS     Force            0.001424     0.000300     NO 
 Maximum Displacement     0.034534     0.001800     NO 
 RMS     Displacement     0.007679     0.001200     NO 
 Predicted change in Energy=-2.042028D-04
 GradGradGradGradGradGradGradGradGradGradGradGradGradGradGradGradGradGrad

                          Input orientation:                          
 ---------------------------------------------------------------------
 Center     Atomic      Atomic             Coordinates (Angstroms)
 Number     Number       Type             X           Y           Z
 ---------------------------------------------------------------------
      1          8           0        0.011521   -0.000405   -0.007880
      2          6           0       -0.000473    0.000891    1.348453
      3          8           0        1.017488    0.000750    2.010141
      4          6           0       -1.376714   -0.000918    1.917666
      5          6           0       -1.515156   -0.001120    3.311957
      6          6           0       -2.778830   -0.002701    3.887600
      7          6           0       -3.927740   -0.003987    3.083994
      8          6           0       -3.782474   -0.003738    1.688976
      9          6           0       -2.518314   -0.002333    1.106821
     10          6           0       -5.252504   -0.005581    3.798362
     11          8           0       -5.336396   -0.007878    5.004333
     12          8           0       -6.380733   -0.005053    3.048740
     13          1           0       -0.622380   -0.000002    3.927456
     14          1           0       -2.903684   -0.002840    4.964255
     15          1           0       -4.642965   -0.004964    1.022337
     16          1           0       -2.415205   -0.002221    0.028038
     17          1           0        0.951518   -0.000251   -0.266988
     18          1           0       -6.174322   -0.002713    2.101222
 ---------------------------------------------------------------------
                    Distance matrix (angstroms):
                    1          2          3          4          5
     1  O    0.000000
     2  C    1.356387   0.000000
     3  O    2.254857   1.214115   0.000000
     4  C    2.373800   1.489311   2.395988   0.000000
     5  C    3.654047   2.479842   2.847633   1.401147   0.000000
     6  C    4.791746   3.763848   4.235198   2.417969   1.388611
     7  C    5.007741   4.293664   5.060480   2.805007   2.423331
     8  C    4.156168   3.797303   4.810697   2.416607   2.788334
     9  C    2.764530   2.529411   3.649369   1.400258   2.422592
    10  C    6.495957   5.795336   6.520013   4.307990   3.768869
    11  O    7.329567   6.468200   7.024037   5.020622   4.179241
    12  O    7.085468   6.602934   7.470770   5.130259   4.872693
    13  H    3.986063   2.652928   2.522947   2.146689   1.084385
    14  H    5.763727   4.637098   4.909419   3.407836   2.158264
    15  H    4.767138   4.653936   5.746001   3.386743   3.876282
    16  H    2.426992   2.752169   3.963852   2.156191   3.405028
    17  H    0.975054   1.875083   2.278085   3.192707   4.346645
    18  H    6.535516   6.219573   7.192388   4.801119   4.813908
                    6          7          8          9         10
     6  C    0.000000
     7  C    1.402062   0.000000
     8  C    2.416868   1.402561   0.000000
     9  C    2.792956   2.428106   1.391764   0.000000
    10  C    2.475284   1.505099   2.571088   3.836690   0.000000
    11  O    2.790745   2.381602   3.661459   4.809596   1.208888
    12  O    3.698297   2.453247   2.932560   4.323117   1.354561
    13  H    2.156821   3.411283   3.872597   3.398611   4.631927
    14  H    1.083870   2.141045   3.391124   3.876636   2.622264
    15  H    3.418295   2.182196   1.088510   2.126332   2.842156
    16  H    3.876654   3.409786   2.151313   1.083700   4.718646
    17  H    5.583557   5.919143   5.122157   3.731902   7.417343
    18  H    3.836732   2.452137   2.427114   3.788830   1.931331
                   11         12         13         14         15
    11  O    0.000000
    12  O    2.216979   0.000000
    13  H    4.835460   5.825016   0.000000
    14  H    2.433047   3.969770   2.505855   0.000000
    15  H    4.041924   2.669485   4.960328   4.308575   0.000000
    16  H    5.770347   4.984985   4.291817   4.960328   2.439581
    17  H    8.205165   8.047110   4.480012   6.498345   5.741134
    18  H    3.021622   0.969743   5.844588   4.346726   1.873247
                   16         17         18
    16  H    0.000000
    17  H    3.379625   0.000000
    18  H    4.292908   7.509063   0.000000
 Stoichiometry    C8H6O4
 Framework group  C1[X(C8H6O4)]
 Deg. of freedom    48
 Full point group                 C1      NOp   1
 Largest Abelian subgroup         C1      NOp   1
 Largest concise Abelian subgroup C1      NOp   1
                         Standard orientation:                         
 ---------------------------------------------------------------------
 Center     Atomic      Atomic             Coordinates (Angstroms)
 Number     Number       Type             X           Y           Z
 ---------------------------------------------------------------------
      1          8           0       -3.466383    1.125223    0.000946
      2          6           0       -2.881926   -0.098783   -0.000820
      3          8           0       -3.524552   -1.128883    0.000006
      4          6           0       -1.394087   -0.032582   -0.000433
      5          6           0       -0.678991   -1.237510   -0.000827
      6          6           0        0.709561   -1.224740   -0.000570
      7          6           0        1.410834   -0.010658   -0.000038
      8          6           0        0.689248    1.192043    0.000316
      9          6           0       -0.702498    1.184968    0.000237
     10          6           0        2.913410   -0.097762    0.000131
     11          8           0        3.499436   -1.155109    0.001944
     12          8           0        3.618773    1.058654   -0.001151
     13          1           0       -1.227713   -2.172814   -0.001356
     14          1           0        1.278015   -2.147579   -0.000907
     15          1           0        1.187086    2.160036    0.000999
     16          1           0       -1.252149    2.118933    0.000583
     17          1           0       -4.427763    0.962499    0.001720
     18          1           0        3.031022    1.829982   -0.002985
 ---------------------------------------------------------------------
 Rotational constants (GHZ):      2.9158124      0.4580519      0.3958647
 Standard basis: 6-31G(d) (6D, 7F)
 There are   192 symmetry adapted basis functions of A   symmetry.
 Integral buffers will be    131072 words long.
 Raffenetti 2 integral format.
 Two-electron integral symmetry is turned on.
   192 basis functions,   360 primitive gaussians,   192 cartesian basis functions
    43 alpha electrons       43 beta electrons
       nuclear repulsion energy       642.1235129367 Hartrees.
 NAtoms=   18 NActive=   18 NUniq=   18 SFac= 7.50D-01 NAtFMM=   80 NAOKFM=F Big=F
 One-electron integrals computed using PRISM.
 NBasis=   192 RedAO= T  NBF=   192
 NBsUse=   192 1.00D-06 NBFU=   192
 Initial guess read from the read-write file.
 B after Tr=     0.000000    0.000000    0.000000
         Rot=    1.000000    0.000000    0.000000    0.000000 Ang=   0.00 deg.
 Initial guess orbital symmetries:
       Occupied  (A) (A) (A) (A) (A) (A) (A) (A) (A) (A) (A) (A)
                 (A) (A) (A) (A) (A) (A) (A) (A) (A) (A) (A) (A)
                 (A) (A) (A) (A) (A) (A) (A) (A) (A) (A) (A) (A)
                 (A) (A) (A) (A) (A) (A) (A)
       Virtual   (A) (A) (A) (A) (A) (A) (A) (A) (A) (A) (A) (A)
                 (A) (A) (A) (A) (A) (A) (A) (A) (A) (A) (A) (A)
                 (A) (A) (A) (A) (A) (A) (A) (A) (A) (A) (A) (A)
                 (A) (A) (A) (A) (A) (A) (A) (A) (A) (A) (A) (A)
                 (A) (A) (A) (A) (A) (A) (A) (A) (A) (A) (A) (A)
                 (A) (A) (A) (A) (A) (A) (A) (A) (A) (A) (A) (A)
                 (A) (A) (A) (A) (A) (A) (A) (A) (A) (A) (A) (A)
                 (A) (A) (A) (A) (A) (A) (A) (A) (A) (A) (A) (A)
                 (A) (A) (A) (A) (A) (A) (A) (A) (A) (A) (A) (A)
                 (A) (A) (A) (A) (A) (A) (A) (A) (A) (A) (A) (A)
                 (A) (A) (A) (A) (A) (A) (A) (A) (A) (A) (A) (A)
                 (A) (A) (A) (A) (A) (A) (A) (A) (A) (A) (A) (A)
                 (A) (A) (A) (A) (A)
 Harris functional with IExCor=  402 diagonalized for initial guess.
 ExpMin= 1.61D-01 ExpMax= 5.48D+03 ExpMxC= 8.25D+02 IAcc=1 IRadAn=         1 AccDes= 0.00D+00
 HarFok:  IExCor=  402 AccDes= 0.00D+00 IRadAn=         1 IDoV= 1
 ScaDFX=  1.000000  1.000000  1.000000  1.000000
 FoFCou: FMM=F IPFlag=           0 FMFlag=      100000 FMFlg1=           0
         NFxFlg=           0 DoJE=T BraDBF=F KetDBF=T FulRan=T
         Omega=  0.000000  0.000000  1.000000  0.000000  0.000000 ICntrl=     500 IOpCl=  0
         NMat0=    1 NMatS0=    1 NMatT0=    0 NMatD0=    1 NMtDS0=    0 NMtDT0=    0
         I1Cent=           4 NGrid=           0.
 Petite list used in FoFCou.
 Requested convergence on RMS density matrix=1.00D-08 within 128 cycles.
 Requested convergence on MAX density matrix=1.00D-06.
 Requested convergence on             energy=1.00D-06.
 No special actions if energy rises.
 Keep R1 ints in memory in canonical form, NReq=175529798.
 Integral accuracy reduced to 1.0D-05 until final iterations.
 Initial convergence to 1.0D-05 achieved.  Increase integral accuracy.
 SCF Done:  E(RB3LYP) =  -609.380918296     A.U. after   16 cycles
             Convg  =    0.7105D-08             -V/T =  2.0090
 Calling FoFJK, ICntrl=      2127 FMM=F ISym2X=0 I1Cent= 0 IOpClX= 0 NMat=1 NMatS=1 NMatT=0.
 ***** Axes restored to original set *****
 -------------------------------------------------------------------
 Center     Atomic                   Forces (Hartrees/Bohr)
 Number     Number              X              Y              Z
 -------------------------------------------------------------------
      1        8          -0.000077345    0.000101314    0.000160961
      2        6           0.000779838   -0.000342705    0.001155945
      3        8          -0.000473442    0.000131775   -0.001033472
      4        6          -0.000388879    0.000098883   -0.000279714
      5        6          -0.000109411    0.000005535    0.000104819
      6        6           0.000618319    0.000003858    0.000133226
      7        6          -0.000418100    0.000033782   -0.000996492
      8        6          -0.000257609   -0.000022104    0.000018591
      9        6           0.000064473    0.000020375   -0.000136738
     10        6           0.001500978   -0.000080282    0.002067724
     11        8          -0.000521519    0.000030597   -0.000429006
     12        8          -0.001271675    0.000014699   -0.000815000
     13        1           0.000415049    0.000000221   -0.000128415
     14        1          -0.000251204   -0.000007111    0.000229910
     15        1           0.000172775   -0.000005117    0.000051471
     16        1           0.000218532    0.000000453   -0.000153345
     17        1           0.000218174    0.000001658   -0.000008882
     18        1          -0.000218954    0.000014169    0.000058418
 -------------------------------------------------------------------
 Cartesian Forces:  Max     0.002067724 RMS     0.000529089

 GradGradGradGradGradGradGradGradGradGradGradGradGradGradGradGradGradGrad
 Berny optimization.
 Using GEDIIS/GDIIS optimizer.
 Internal  Forces:  Max     0.001666800 RMS     0.000336097
 Search for a local minimum.
 Step number   3 out of a maximum of   90
 All quantities printed in internal units (Hartrees-Bohrs-Radians)
 Mixed Optimization -- En-DIIS/RFO-DIIS
 Update second derivatives using D2CorX and points    1    2    3
 DE= -2.09D-04 DEPred=-2.04D-04 R= 1.02D+00
 SS=  1.41D+00  RLast= 3.68D-02 DXNew= 8.0267D-01 1.1027D-01
[...]
 -------------------------------------------------------------------
 Center     Atomic                   Forces (Hartrees/Bohr)
 Number     Number              X              Y              Z
 -------------------------------------------------------------------
      1        8          -0.000490971   -0.000492342   -0.000057622
      2        6          -0.001955886    0.001500576   -0.001139260
      3        8           0.001233514   -0.000526343    0.001218776
      4        6           0.000210164   -0.000439036   -0.000089369
      5        6           0.000337250   -0.000021779   -0.000255941
      6        6          -0.000930568    0.000409789   -0.000075080
      7        6          -0.000018077    0.000439582    0.000611394
      8        6          -0.001108923   -0.000417352   -0.000410993
      9        6           0.000840680   -0.000173931    0.000431295
     10        6          -0.000565458   -0.000757504   -0.001298142
     11        8           0.000300124    0.000006482   -0.000275720
     12        8           0.001390639    0.000332001   -0.000005040
     13        1          -0.000248320   -0.000000884    0.000259527
     14        1           0.000444714   -0.000052955    0.000134680
     15        1          -0.000143858    0.000271535    0.000761308
     16        1          -0.000128138   -0.000033827    0.000051479
     17        1           0.000611254    0.000010134   -0.000221284
     18        1           0.000221862   -0.000054145    0.000359994
 -------------------------------------------------------------------
 Cartesian Forces:  Max     0.001955886 RMS     0.000639859

 GradGradGradGradGradGradGradGradGradGradGradGradGradGradGradGradGradGrad
 Berny optimization.
 Using GEDIIS/GDIIS optimizer.
 Internal  Forces:  Max     0.001751423 RMS     0.000521653
 Search for a local minimum.
 Step number  21 out of a maximum of   90
 All quantities printed in internal units (Hartrees-Bohrs-Radians)
 Mixed Optimization -- En-DIIS/RFO-DIIS
 Swaping is turned off.
 Update second derivatives using D2CorX and points    8   10    9   12   11
                                                     13   15   14   17   16
                                                     18   19   20   21
 DE= -1.26D-04 DEPred=-1.81D-04 R= 6.93D-01
 SS=  1.41D+00  RLast= 1.41D-01 DXNew= 2.3784D-01 4.2426D-01
 Trust test= 6.93D-01 RLast= 1.41D-01 DXMaxT set to 2.38D-01
     Eigenvalues ---    0.00000   0.00774   0.00988   0.01644   0.01769
     Eigenvalues ---    0.01886   0.02042   0.02063   0.02068   0.02092
     Eigenvalues ---    0.02106   0.02116   0.02425   0.02653   0.05340
     Eigenvalues ---    0.14153   0.15057   0.15973   0.16042   0.16298
     Eigenvalues ---    0.17469   0.20813   0.21970   0.23152   0.24125
     Eigenvalues ---    0.24693   0.24971   0.26494   0.29696   0.32608
     Eigenvalues ---    0.33929   0.34668   0.34944   0.35058   0.36487
     Eigenvalues ---    0.37949   0.39763   0.41890   0.42490   0.44808
     Eigenvalues ---    0.47164   0.47699   0.49288   0.52065   0.56165
     Eigenvalues ---    0.80666   0.93310   1.262231000.000001000.00000
     Eigenvalues --- 1000.000001000.000001000.000001000.000001000.00000
     Eigenvalues --- 1000.000001000.000001000.000001000.000001000.00000
     Eigenvalues --- 1000.000001000.000001000.000001000.000001000.00000
     Eigenvalues --- 1000.000001000.000001000.000001000.000001000.00000
     Eigenvalues --- 1000.000001000.000001000.000001000.000001000.00000
     Eigenvalues --- 1000.000001000.000001000.000001000.000001000.00000
 Eigenvalue     1 is   2.21D-06 Eigenvector:
                          D30       D29       D28       D27       D36
   1                    0.47042   0.46896   0.43414   0.43267   0.19481
                          D35       D3        D6        D4        D2
   1                    0.19340   0.11898  -0.11120   0.11068  -0.10863
 En-DIIS/RFO-DIIS IScMMF=        0 using points:    21   20   19   18
 RFO step:  Lambda=-1.23122463D-04.
 DIIS coeffs:      1.58150      1.17760     -4.61203      2.85293
 Matrix for removal  1 Erem= -609.381182511922     Crem= 0.000D+00
 En-DIIS coeffs:      1.00000      0.00000      0.00000      0.00000
 Maximum step size (   0.238) exceeded in Quadratic search.
    -- Step size scaled by   0.025
 Iteration  1 RMS(Cart)=  0.05614492 RMS(Int)=  0.00203163
 Iteration  2 RMS(Cart)=  0.00284288 RMS(Int)=  0.00008266
 Iteration  3 RMS(Cart)=  0.00000509 RMS(Int)=  0.00008257
 Iteration  4 RMS(Cart)=  0.00000000 RMS(Int)=  0.00008257
 Variable       Old X    -DE/DX   Delta X   Delta X   Delta X     New X
                                  (DIIS)     (GDIIS)  (Total)
    R1        2.56357   0.00030   0.00000  -0.00077  -0.00077   2.56281
    R2        1.84168   0.00065   0.00000   0.00025   0.00025   1.84193
    R3        2.29104   0.00166   0.00000  -0.00278  -0.00278   2.28827
    R4        2.81729  -0.00047   0.00000  -0.00081  -0.00081   2.81648
    R5        2.64886   0.00015   0.00000   0.00124   0.00123   2.65009
    R6        2.64709  -0.00031   0.00000   0.00076   0.00076   2.64785
    R7        2.62406   0.00005   0.00000  -0.00025  -0.00026   2.62380
    R8        2.05024  -0.00006   0.00000   0.00166   0.00166   2.05191
    R9        2.65161  -0.00044   0.00000   0.00305   0.00305   2.65466
   R10        2.04935   0.00008   0.00000   0.00200   0.00200   2.05135
   R11        2.65092  -0.00077   0.00000  -0.00052  -0.00051   2.65040
   R12        2.84565  -0.00175   0.00000  -0.00194  -0.00194   2.84371
   R13        2.63090   0.00023   0.00000   0.00164   0.00165   2.63254
   R14        2.05696  -0.00037   0.00000  -0.00035  -0.00035   2.05662
   R15        2.04848  -0.00006   0.00000   0.00090   0.00090   2.04938
   R16        2.28204  -0.00030   0.00000   0.00034   0.00034   2.28239
   R17        2.57184  -0.00145   0.00000   0.00731   0.00731   2.57915
   R18        1.83495  -0.00029   0.00000   0.00151   0.00151   1.83647
    A1        1.84769   0.00009   0.00000  -0.00602  -0.00602   1.84167
    A2        2.13588   0.00022   0.00000   0.00078   0.00036   2.13623
    A3        1.96860   0.00037   0.00000  -0.00386  -0.00428   1.96432
    A4        2.17864  -0.00058   0.00000   0.00369   0.00327   2.18190
    A5        2.05875   0.00008   0.00000  -0.00327  -0.00327   2.05548
    A6        2.13239  -0.00007   0.00000  -0.00001  -0.00001   2.13237
    A7        2.09203  -0.00001   0.00000   0.00327   0.00327   2.09530
    A8        2.09659  -0.00002   0.00000  -0.00137  -0.00138   2.09521
    A9        2.06934   0.00037   0.00000  -0.00363  -0.00363   2.06572
   A10        2.11725  -0.00035   0.00000   0.00500   0.00500   2.12225
   A11        2.10112  -0.00035   0.00000  -0.00253  -0.00253   2.09859
   A12        2.11903  -0.00029   0.00000   0.00403   0.00403   2.12306
   A13        2.06303   0.00064   0.00000  -0.00151  -0.00151   2.06152
   A14        2.08109   0.00064   0.00000   0.00426   0.00425   2.08535
   A15        2.04249   0.00107   0.00000   0.00113   0.00112   2.04361
   A16        2.15941  -0.00171   0.00000  -0.00554  -0.00556   2.15386
   A17        2.10415  -0.00028   0.00000  -0.00258  -0.00260   2.10156
   A18        2.11746  -0.00058   0.00000  -0.00279  -0.00282   2.11464
   A19        2.06075   0.00086   0.00000   0.00482   0.00478   2.06554
   A20        2.09115   0.00001   0.00000  -0.00124  -0.00123   2.08992
   A21        2.09095   0.00012   0.00000  -0.00072  -0.00072   2.09023
   A22        2.10106  -0.00013   0.00000   0.00194   0.00193   2.10299
   A23        2.14535   0.00034   0.00000   0.00698   0.00698   2.15233
   A24        2.04726  -0.00130   0.00000  -0.01464  -0.01464   2.03262
   A25        2.09056   0.00097   0.00000   0.00765   0.00765   2.09821
   A26        1.93141  -0.00056   0.00000   0.00211   0.00211   1.93351
    D1        0.00712  -0.00037   0.00000  -0.02565  -0.02561  -0.01849
    D2        3.13629   0.00040   0.00000   0.02602   0.02598  -3.12092
    D3       -3.13911  -0.00038   0.00000  -0.02844  -0.02845   3.11563
    D4        0.00898  -0.00039   0.00000  -0.02648  -0.02650  -0.01752
    D5       -0.01029   0.00042   0.00000   0.02469   0.02471   0.01441
    D6        3.13779   0.00041   0.00000   0.02665   0.02666  -3.11874
    D7       -3.14124  -0.00002   0.00000  -0.00057  -0.00057   3.14137
    D8       -0.00107  -0.00003   0.00000  -0.00071  -0.00071  -0.00177
    D9       -0.00598   0.00000   0.00000  -0.00250  -0.00249  -0.00848
   D10        3.13419  -0.00001   0.00000  -0.00263  -0.00263   3.13156
   D11       -3.13806   0.00008   0.00000   0.00265   0.00265  -3.13541
   D12        0.01214   0.00001   0.00000   0.00501   0.00501   0.01715
   D13        0.01014   0.00006   0.00000   0.00466   0.00467   0.01481
   D14       -3.12284  -0.00001   0.00000   0.00703   0.00703  -3.11581
   D15       -0.01063  -0.00002   0.00000  -0.00429  -0.00429  -0.01492
   D16        3.13469  -0.00006   0.00000  -0.00252  -0.00252   3.13218
   D17        3.13242  -0.00001   0.00000  -0.00414  -0.00414   3.12828
   D18       -0.00544  -0.00005   0.00000  -0.00237  -0.00237  -0.00781
   D19        0.02283  -0.00001   0.00000   0.00890   0.00891   0.03174
   D20       -3.13868  -0.00005   0.00000   0.00055   0.00054  -3.13814
   D21       -3.12238   0.00003   0.00000   0.00719   0.00721  -3.11516
   D22       -0.00070  -0.00002   0.00000  -0.00115  -0.00116  -0.00186
   D23       -0.01866   0.00007   0.00000  -0.00672  -0.00673  -0.02538
   D24        3.07876   0.00011   0.00000  -0.02134  -0.02132   3.05744
   D25       -3.13892   0.00008   0.00000   0.00213   0.00211  -3.13680
   D26       -0.04150   0.00012   0.00000  -0.01249  -0.01248  -0.05398
   D27       -0.28345  -0.00013   0.00000  -0.10288  -0.10289  -0.38634
   D28        2.86481  -0.00051   0.00000  -0.10324  -0.10325   2.76156
   D29        2.83725  -0.00014   0.00000  -0.11151  -0.11150   2.72575
   D30       -0.29768  -0.00052   0.00000  -0.11187  -0.11185  -0.40954
   D31        0.00227  -0.00010   0.00000  -0.00003  -0.00004   0.00223
   D32        3.13521  -0.00003   0.00000  -0.00242  -0.00243   3.13278
   D33       -3.09655  -0.00011   0.00000   0.01431   0.01433  -3.08222
   D34        0.03639  -0.00004   0.00000   0.01192   0.01194   0.04833
   D35       -0.16728   0.00013   0.00000  -0.04587  -0.04587  -0.21314
   D36        2.98076  -0.00024   0.00000  -0.04621  -0.04621   2.93455
         Item               Value     Threshold  Converged?
 Maximum Force            0.001751     0.000450     NO 
 RMS     Force            0.000522     0.000300     NO 
 Maximum Displacement     0.313491     0.001800     NO 
 RMS     Displacement     0.056397     0.001200     NO 
 Predicted change in Energy=-2.282413D-04
 GradGradGradGradGradGradGradGradGradGradGradGradGradGradGradGradGradGrad

                          Input orientation:                          
 ---------------------------------------------------------------------
 Center     Atomic      Atomic             Coordinates (Angstroms)
 Number     Number       Type             X           Y           Z
 ---------------------------------------------------------------------
      1          8           0        0.003255   -0.032307   -0.003541
      2          6           0       -0.007656    0.064951    1.349101
      3          8           0        1.008975    0.145374    2.001996
      4          6           0       -1.385156    0.006606    1.915171
      5          6           0       -1.521570    0.065458    3.309648
      6          6           0       -2.783059    0.015163    3.887512
      7          6           0       -3.928354   -0.076670    3.079247
      8          6           0       -3.785573   -0.155799    1.686245
      9          6           0       -2.520966   -0.113283    1.103461
     10          6           0       -5.259516   -0.121972    3.779576
     11          8           0       -5.392912   -0.467167    4.929269
     12          8           0       -6.347444    0.246154    3.042245
     13          1           0       -0.622483    0.148803    3.912728
     14          1           0       -2.918116    0.050025    4.964041
     15          1           0       -4.647858   -0.305743    1.039399
     16          1           0       -2.408493   -0.182565    0.027053
     17          1           0        0.943261   -0.002566   -0.259586
     18          1           0       -6.073699    0.670473    2.211918
 ---------------------------------------------------------------------
                    Distance matrix (angstroms):
                    1          2          3          4          5
     1  O    0.000000
     2  C    1.356178   0.000000
     3  O    2.250605   1.210899   0.000000
     4  C    2.368682   1.490418   2.399720   0.000000
     5  C    3.648544   2.477031   2.849561   1.402369   0.000000
     6  C    4.786031   3.761499   4.236938   2.417506   1.388456
     7  C    4.996308   4.287812   5.058358   2.798189   2.421960
     8  C    4.150403   3.799349   4.814363   2.416771   2.794655
     9  C    2.757482   2.531568   3.651678   1.401182   2.428580
    10  C    6.482034   5.790007   6.521138   4.301535   3.772029
    11  O    7.323957   6.488586   7.065996   5.036999   4.230148
    12  O    7.048811   6.564487   7.430287   5.094309   4.836653
    13  H    3.970077   2.637655   2.512482   2.142924   1.085822
    14  H    5.763511   4.640991   4.919842   3.412838   2.165085
    15  H    4.774447   4.665277   5.755854   3.392604   3.881430
    16  H    2.416618   2.751926   3.960686   2.155921   3.409337
    17  H    0.974707   1.869940   2.267369   3.186091   4.338140
    18  H    6.506268   6.156946   7.105214   4.744598   4.721539
                    6          7          8          9         10
     6  C    0.000000
     7  C    1.404786   0.000000
     8  C    2.424837   1.402534   0.000000
     9  C    2.799309   2.426068   1.393081   0.000000
    10  C    2.482598   1.504828   2.560407   3.829010   0.000000
    11  O    2.851181   2.391653   3.632863   4.796886   1.207787
    12  O    3.670514   2.440816   2.926344   4.304650   1.364830
    13  H    2.164852   3.416768   3.880095   3.400721   4.646840
    14  H    1.085528   2.142214   3.396879   3.884389   2.629581
    15  H    3.419386   2.175118   1.088315   2.136542   2.813621
    16  H    3.883625   3.411316   2.156382   1.084484   4.713113
    17  H    5.575321   5.906431   5.115819   3.724383   7.402940
    18  H    3.750380   2.431664   2.488891   3.803269   1.936082
                   11         12         13         14         15
    11  O    0.000000
    12  O    2.231775   0.000000
    13  H    4.916276   5.791579   0.000000
    14  H    2.528500   3.935995   2.526845   0.000000
    15  H    3.963869   2.684134   4.966515   4.303649   0.000000
    16  H    5.746258   4.979008   4.289301   4.968669   2.460645
    17  H    8.202875   8.007392   4.458999   6.496098   5.748033
    18  H    3.023523   0.971816   5.734164   4.232829   2.088258
                   16         17         18
    16  H    0.000000
    17  H    3.368800   0.000000
    18  H    4.351441   7.469875   0.000000
 Stoichiometry    C8H6O4
 Framework group  C1[X(C8H6O4)]
 Deg. of freedom    48
 Full point group                 C1      NOp   1
 Largest Abelian subgroup         C1      NOp   1
 Largest concise Abelian subgroup C1      NOp   1
                         Standard orientation:                         
 ---------------------------------------------------------------------
 Center     Atomic      Atomic             Coordinates (Angstroms)
 Number     Number       Type             X           Y           Z
 ---------------------------------------------------------------------
      1          8           0        3.454303    1.122540   -0.097543
      2          6           0        2.878010   -0.098044    0.033918
      3          8           0        3.527579   -1.116414    0.119117
      4          6           0        1.389272   -0.033163    0.005672
      5          6           0        0.680738   -1.239598    0.101236
      6          6           0       -0.707545   -1.234066    0.080004
      7          6           0       -1.408780   -0.020854   -0.019044
      8          6           0       -0.695517    1.181198   -0.134913
      9          6           0        0.697498    1.178678   -0.121617
     10          6           0       -2.911629   -0.097010   -0.031397
     11          8           0       -3.523047   -1.089978   -0.345933
     12          8           0       -3.580969    1.036038    0.330469
     13          1           0        1.244671   -2.163290    0.189448
     14          1           0       -1.281737   -2.153107    0.143554
     15          1           0       -1.209072    2.127907   -0.291224
     16          1           0        1.250429    2.106486   -0.219311
     17          1           0        4.415273    0.959948   -0.085052
     18          1           0       -2.974780    1.681718    0.730543
 ---------------------------------------------------------------------
 Rotational constants (GHZ):      2.9011981      0.4573318      0.3984161
 Standard basis: 6-31G(d) (6D, 7F)
 There are   192 symmetry adapted basis functions of A   symmetry.
 Integral buffers will be    131072 words long.
 Raffenetti 2 integral format.
 Two-electron integral symmetry is turned on.
   192 basis functions,   360 primitive gaussians,   192 cartesian basis functions
    43 alpha electrons       43 beta electrons
       nuclear repulsion energy       641.9166056569 Hartrees.
 NAtoms=   18 NActive=   18 NUniq=   18 SFac= 7.50D-01 NAtFMM=   80 NAOKFM=F Big=F
 One-electron integrals computed using PRISM.
 NBasis=   192 RedAO= T  NBF=   192
 NBsUse=   192 1.00D-06 NBFU=   192
 Initial guess read from the read-write file.
 B after Tr=     0.000000    0.000000    0.000000
         Rot=    1.000000    0.000000    0.000000    0.000000 Ang=   0.00 deg.
 Initial guess orbital symmetries:
       Occupied  (A) (A) (A) (A) (A) (A) (A) (A) (A) (A) (A) (A)
                 (A) (A) (A) (A) (A) (A) (A) (A) (A) (A) (A) (A)
                 (A) (A) (A) (A) (A) (A) (A) (A) (A) (A) (A) (A)
                 (A) (A) (A) (A) (A) (A) (A)
       Virtual   (A) (A) (A) (A) (A) (A) (A) (A) (A) (A) (A) (A)
                 (A) (A) (A) (A) (A) (A) (A) (A) (A) (A) (A) (A)
                 (A) (A) (A) (A) (A) (A) (A) (A) (A) (A) (A) (A)
                 (A) (A) (A) (A) (A) (A) (A) (A) (A) (A) (A) (A)
                 (A) (A) (A) (A) (A) (A) (A) (A) (A) (A) (A) (A)
                 (A) (A) (A) (A) (A) (A) (A) (A) (A) (A) (A) (A)
                 (A) (A) (A) (A) (A) (A) (A) (A) (A) (A) (A) (A)
                 (A) (A) (A) (A) (A) (A) (A) (A) (A) (A) (A) (A)
                 (A) (A) (A) (A) (A) (A) (A) (A) (A) (A) (A) (A)
                 (A) (A) (A) (A) (A) (A) (A) (A) (A) (A) (A) (A)
                 (A) (A) (A) (A) (A) (A) (A) (A) (A) (A) (A) (A)
                 (A) (A) (A) (A) (A) (A) (A) (A) (A) (A) (A) (A)
                 (A) (A) (A) (A) (A)
 Harris functional with IExCor=  402 diagonalized for initial guess.
 ExpMin= 1.61D-01 ExpMax= 5.48D+03 ExpMxC= 8.25D+02 IAcc=1 IRadAn=         1 AccDes= 0.00D+00
 HarFok:  IExCor=  402 AccDes= 0.00D+00 IRadAn=         1 IDoV= 1
 ScaDFX=  1.000000  1.000000  1.000000  1.000000
 FoFCou: FMM=F IPFlag=           0 FMFlag=      100000 FMFlg1=           0
         NFxFlg=           0 DoJE=T BraDBF=F KetDBF=T FulRan=T
         Omega=  0.000000  0.000000  1.000000  0.000000  0.000000 ICntrl=     500 IOpCl=  0
         NMat0=    1 NMatS0=    1 NMatT0=    0 NMatD0=    1 NMtDS0=    0 NMtDT0=    0
         I1Cent=           4 NGrid=           0.
 Petite list used in FoFCou.
 Requested convergence on RMS density matrix=1.00D-08 within 128 cycles.
 Requested convergence on MAX density matrix=1.00D-06.
 Requested convergence on             energy=1.00D-06.
 No special actions if energy rises.
 Keep R1 ints in memory in canonical form, NReq=175529777.
